                         Program Version 5.0.3 -  RELEASE  -
|  1> ! DLPNO-CCSD(T) def2-TZVPP def2-TZVPP/C VeryTightSCF
|  2> %maxcore 3400
|  3>
|  4> %pal nprocs 8
|  5> end
|  6>
|  7> *xyz 1 1
|  8>  C       -3.028983        2.475489       -1.761781
|  9>  N       -2.177282        1.896979       -0.692777
| 10>  C       -2.923816        1.522163        0.556124
| 11>  C       -2.081900        0.625027        1.447353
| 12>  C       -1.691733       -0.703329        0.774461
| 13>  C       -2.900779       -1.434014        0.228806
| 14>  C       -3.099150       -1.631928       -1.131872
| 15>  C       -4.251592       -2.261250       -1.586807
| 16>  C       -5.209747       -2.699318       -0.689013
| 17>  C       -5.008510       -2.517845        0.672577
| 18>  C       -3.861960       -1.889883        1.127545
| 19>  O       -0.803261       -0.439865       -0.313354
| 20>  C        0.511974       -0.114556       -0.080657
| 21>  C        1.217704        0.309671       -1.201185
| 22>  C        2.546696        0.665822       -1.084047
| 23>  C        3.178167        0.597812        0.150490
| 24>  C        2.473314        0.166393        1.260014
| 25>  C        1.136635       -0.191205        1.155260
| 26>  C        4.613337        1.039369        0.288810
| 27>  F        5.301996        0.839241       -0.839122
| 28>  F        4.684436        2.350846        0.570030
| 29>  F        5.239886        0.388505        1.273058
| 30>  H       -2.404032        2.750101       -2.607316
| 31>  H       -3.539833        3.353490       -1.374781
| 32>  H       -3.754846        1.724468       -2.062970
| 33>  H       -1.428621        2.544819       -0.452537
| 34>  H       -3.827673        1.008920        0.229934
| 35>  H       -3.207039        2.446538        1.056705
| 36>  H       -2.668600        0.414340        2.341401
| 37>  H       -1.184312        1.149313        1.783755
| 38>  H       -1.192437       -1.344774        1.502247
| 39>  H       -2.339894       -1.333445       -1.842277
| 40>  H       -4.389422       -2.421549       -2.648289
| 41>  H       -6.103546       -3.194324       -1.044716
| 42>  H       -5.742720       -2.874967        1.382663
| 43>  H       -3.711609       -1.769845        2.194788
| 44>  H        0.726085        0.322253       -2.166158
| 45>  H        3.098322        0.984117       -1.958216
| 46>  H        2.965992        0.100304        2.220681
| 47>  H        0.616754       -0.533609        2.037976
| 48>  H       -1.698975        1.041905       -1.014861
| 49> *
| 50>
| 51>
| 52>                          ****END OF INPUT****

CARTESIAN COORDINATES (ANGSTROEM)
---------------------------------
  C     -3.028983    2.475489   -1.761781
  N     -2.177282    1.896979   -0.692777
  C     -2.923816    1.522163    0.556124
  C     -2.081900    0.625027    1.447353
  C     -1.691733   -0.703329    0.774461
  C     -2.900779   -1.434014    0.228806
  C     -3.099150   -1.631928   -1.131872
  C     -4.251592   -2.261250   -1.586807
  C     -5.209747   -2.699318   -0.689013
  C     -5.008510   -2.517845    0.672577
  C     -3.861960   -1.889883    1.127545
  O     -0.803261   -0.439865   -0.313354
  C      0.511974   -0.114556   -0.080657
  C      1.217704    0.309671   -1.201185
  C      2.546696    0.665822   -1.084047
  C      3.178167    0.597812    0.150490
  C      2.473314    0.166393    1.260014
  C      1.136635   -0.191205    1.155260
  C      4.613337    1.039369    0.288810
  F      5.301996    0.839241   -0.839122
  F      4.684436    2.350846    0.570030
  F      5.239886    0.388505    1.273058
  H     -2.404032    2.750101   -2.607316
  H     -3.539833    3.353490   -1.374781
  H     -3.754846    1.724468   -2.062970
  H     -1.428621    2.544819   -0.452537
  H     -3.827673    1.008920    0.229934
  H     -3.207039    2.446538    1.056705
  H     -2.668600    0.414340    2.341401
  H     -1.184312    1.149313    1.783755
  H     -1.192437   -1.344774    1.502247
  H     -2.339894   -1.333445   -1.842277
  H     -4.389422   -2.421549   -2.648289
  H     -6.103546   -3.194324   -1.044716
  H     -5.742720   -2.874967    1.382663
  H     -3.711609   -1.769845    2.194788
  H      0.726085    0.322253   -2.166158
  H      3.098322    0.984117   -1.958216
  H      2.965992    0.100304    2.220681
  H      0.616754   -0.533609    2.037976
  H     -1.698975    1.041905   -1.014861

 Total Charge           Charge          ....    1
 Multiplicity           Mult            ....    1
 Number of Electrons    NEL             ....  162
 Basis Dimension        Dim             ....  948

ORBITAL ENERGIES
----------------

  NO   OCC          E(Eh)            E(eV)
   0   2.0000     -26.413130      -718.7378
   1   2.0000     -26.413106      -718.7371
   2   2.0000     -26.408663      -718.6162
   3   2.0000     -20.733461      -564.1862
   4   2.0000     -15.844703      -431.1563
   5   2.0000     -11.588015      -315.3259
   6   2.0000     -11.446145      -311.4654
   7   2.0000     -11.443642      -311.3973
   8   2.0000     -11.443292      -311.3878
   9   2.0000     -11.437222      -311.2226
  10   2.0000     -11.389732      -309.9304
  11   2.0000     -11.366865      -309.3081
  12   2.0000     -11.366445      -309.2967
  13   2.0000     -11.365490      -309.2707
  14   2.0000     -11.359976      -309.1207
  15   2.0000     -11.359818      -309.1164
  16   2.0000     -11.357629      -309.0568
  17   2.0000     -11.350223      -308.8553
  18   2.0000     -11.350085      -308.8515
  19   2.0000     -11.346106      -308.7432
  20   2.0000     -11.345884      -308.7372
  21   2.0000     -11.341057      -308.6059
  22   2.0000      -1.807107       -49.1739
  23   2.0000      -1.712547       -46.6008
  24   2.0000      -1.707578       -46.4656
  25   2.0000      -1.564587       -42.5746
  26   2.0000      -1.481990       -40.3270
  27   2.0000      -1.296263       -35.2731
  28   2.0000      -1.279667       -34.8215
  29   2.0000      -1.233700       -33.5707
  30   2.0000      -1.178980       -32.0817
  31   2.0000      -1.156121       -31.4597
  32   2.0000      -1.151173       -31.3250
  33   2.0000      -1.133920       -30.8555
  34   2.0000      -1.120847       -30.4998
  35   2.0000      -1.083554       -29.4850
  36   2.0000      -1.050917       -28.5969
  37   2.0000      -1.006589       -27.3907
  38   2.0000      -0.977729       -26.6054
  39   2.0000      -0.962940       -26.2029
  40   2.0000      -0.948267       -25.8037
  41   2.0000      -0.941849       -25.6290
  42   2.0000      -0.916544       -24.9404
  43   2.0000      -0.899651       -24.4807
  44   2.0000      -0.897021       -24.4092
  45   2.0000      -0.889645       -24.2085
  46   2.0000      -0.866808       -23.5870
  47   2.0000      -0.844048       -22.9677
  48   2.0000      -0.829542       -22.5730
  49   2.0000      -0.822505       -22.3815
  50   2.0000      -0.802750       -21.8439
  51   2.0000      -0.793740       -21.5988
  52   2.0000      -0.787454       -21.4277
  53   2.0000      -0.777799       -21.1650
  54   2.0000      -0.766054       -20.8454
  55   2.0000      -0.757547       -20.6139
  56   2.0000      -0.753265       -20.4974
  57   2.0000      -0.743952       -20.2440
  58   2.0000      -0.740492       -20.1498
  59   2.0000      -0.738941       -20.1076
  60   2.0000      -0.738172       -20.0867
  61   2.0000      -0.733837       -19.9687
  62   2.0000      -0.725993       -19.7553
  63   2.0000      -0.723875       -19.6976
  64   2.0000      -0.715292       -19.4641
  65   2.0000      -0.707585       -19.2544
  66   2.0000      -0.704487       -19.1701
  67   2.0000      -0.694542       -18.8994
  68   2.0000      -0.677193       -18.4274
  69   2.0000      -0.661749       -18.0071
  70   2.0000      -0.654772       -17.8173
  71   2.0000      -0.636401       -17.3173
  72   2.0000      -0.622784       -16.9468
  73   2.0000      -0.620948       -16.8969
  74   2.0000      -0.609236       -16.5781
  75   2.0000      -0.603220       -16.4145
  76   2.0000      -0.598852       -16.2956
  77   2.0000      -0.471573       -12.8322
  78   2.0000      -0.457843       -12.4585
  79   2.0000      -0.453390       -12.3374
  80   2.0000      -0.451148       -12.2764
  81   0.0000      -0.035975        -0.9789
  82   0.0000      -0.008457        -0.2301
  83   0.0000      -0.005324        -0.1449
  84   0.0000      -0.000340        -0.0093
  85   0.0000       0.006792         0.1848

MULLIKEN ATOMIC CHARGES
-----------------------
   0 C :   -0.111903
   1 N :    0.042759
   2 C :   -0.156840
   3 C :   -0.158168
   4 C :    0.291315
   5 C :    0.080731
   6 C :   -0.211091
   7 C :   -0.107608
   8 C :   -0.076225
   9 C :   -0.108240
  10 C :   -0.222257
  11 O :   -0.422261
  12 C :    0.336207
  13 C :   -0.274939
  14 C :   -0.039540
  15 C :   -0.039348
  16 C :   -0.131467
  17 C :   -0.167872
  18 C :    0.709711
  19 F :   -0.239388
  20 F :   -0.239812
  21 F :   -0.238666
  22 H :    0.126518
  23 H :    0.123248
  24 H :    0.122819
  25 H :    0.199237
  26 H :    0.143221
  27 H :    0.145289
  28 H :    0.110961
  29 H :    0.103433
  30 H :    0.123803
  31 H :    0.121142
  32 H :    0.122063
  33 H :    0.124385
  34 H :    0.124177
  35 H :    0.103707
  36 H :    0.113197
  37 H :    0.139875
  38 H :    0.138862
  39 H :    0.102370
  40 H :    0.196592
Sum of atomic charges:    1.0000000

LOEWDIN ATOMIC CHARGES
----------------------
   0 C :    0.093051
   1 N :    0.524598
   2 C :    0.041062
   3 C :    0.004318
   4 C :   -0.110003
   5 C :   -0.077233
   6 C :   -0.017816
   7 C :    0.002378
   8 C :    0.008150
   9 C :    0.010740
  10 C :   -0.003053
  11 O :    0.256105
  12 C :   -0.180224
  13 C :   -0.020858
  14 C :    0.043912
  15 C :   -0.084235
  16 C :    0.046167
  17 C :   -0.017378
  18 C :   -0.522624
  19 F :    0.167020
  20 F :    0.150962
  21 F :    0.168149
  22 H :    0.022615
  23 H :    0.025193
  24 H :    0.025727
  25 H :    0.043381
  26 H :    0.034678
  27 H :    0.028334
  28 H :    0.039229
  29 H :    0.024808
  30 H :    0.033312
  31 H :    0.013360
  32 H :    0.025050
  33 H :    0.026372
  34 H :    0.027298
  35 H :    0.022788
  36 H :    0.020404
  37 H :    0.037073
  38 H :    0.037683
  39 H :    0.017948
  40 H :    0.011558

  Mayer bond orders larger than 0.100000
B(  0-C ,  1-N ) :   0.8690 B(  0-C , 22-H ) :   0.9870 B(  0-C , 23-H ) :   0.9887
B(  0-C , 24-H ) :   0.9938 B(  1-N ,  2-C ) :   0.8590 B(  1-N , 25-H ) :   0.9533
B(  1-N , 40-H ) :   0.9334 B(  2-C ,  3-C ) :   0.9236 B(  2-C , 26-H ) :   1.0095
B(  2-C , 27-H ) :   1.0064 B(  3-C ,  4-C ) :   0.9065 B(  3-C , 28-H ) :   1.0096
B(  3-C , 29-H ) :   1.0219 B(  4-C ,  5-C ) :   0.8988 B(  4-C , 11-O ) :   0.7905
B(  4-C , 30-H ) :   1.0241 B(  5-C ,  6-C ) :   1.3374 B(  5-C , 10-C ) :   1.4033
B(  6-C ,  7-C ) :   1.4856 B(  6-C , 31-H ) :   0.9769 B(  7-C ,  8-C ) :   1.4945
B(  7-C , 32-H ) :   0.9684 B(  8-C ,  9-C ) :   1.4533 B(  8-C , 33-H ) :   0.9664
B(  9-C , 10-C ) :   1.5350 B(  9-C , 34-H ) :   0.9654 B( 10-C , 35-H ) :   0.9768
B( 11-O , 12-C ) :   0.9687 B( 12-C , 13-C ) :   1.4171 B( 12-C , 17-C ) :   1.4168
B( 13-C , 14-C ) :   1.4995 B( 13-C , 36-H ) :   0.9675 B( 14-C , 15-C ) :   1.4284
B( 14-C , 37-H ) :   0.9443 B( 15-C , 16-C ) :   1.4860 B( 15-C , 18-C ) :   1.0300
B( 16-C , 17-C ) :   1.4617 B( 16-C , 38-H ) :   0.9430 B( 17-C , 39-H ) :   0.9880
B( 18-C , 19-F ) :   1.0504 B( 18-C , 20-F ) :   1.0482 B( 18-C , 21-F ) :   1.0517

E(0)                                       ...  -1082.675251288
E(0)                                       ...  -1082.675251288
E(CORR)(strong-pairs)                      ...     -3.952994114
E(CORR)(weak-pairs)                        ...     -0.028240126
E(CORR)(corrected)                         ...     -3.981234240
E(TOT)                                     ...  -1086.656485528
E(CCSD(T))                                 ...  -1086.825741395
FINAL SINGLE POINT ENERGY     -1086.825741394558

DIPOLE MOMENT
-------------
                                X             Y             Z
Electronic contribution:     45.66387       2.11702       2.87307
Nuclear contribution   :    -50.73246      -0.15348      -3.37737
                        -----------------------------------------
Total Dipole Moment    :     -5.06859       1.96354      -0.50431
                        -----------------------------------------
Magnitude (a.u.)       :      5.45897
Magnitude (Debye)      :     13.87560

Rotational constants in cm-1:     0.021237     0.003834     0.003665
Rotational constants in MHz :   636.671887   114.928227   109.872758

                             ****ORCA TERMINATED NORMALLY****
TOTAL RUN TIME: 0 days 0 hours 53 minutes 49 seconds 21 msec
