                         Program Version 5.0.3 -  RELEASE  -
|  1> ! DLPNO-CCSD(T) def2-TZVPP def2-TZVPP/C VeryTightSCF
|  2> %maxcore 3400
|  3>
|  4> %pal nprocs 8
|  5> end
|  6>
|  7> *xyz 1 1
|  8>  C       -3.696693        2.714074       -1.734394
|  9>  N       -3.085782        2.507258       -0.397930
| 10>  C       -3.887146        1.626417        0.518572
| 11>  C       -3.041176        1.139480        1.681719
| 12>  C       -1.883796        0.224863        1.263568
| 13>  C       -2.369853       -0.991330        0.500641
| 14>  C       -3.020859       -2.004013        1.197957
| 15>  C       -3.530268       -3.103421        0.526786
| 16>  C       -3.389923       -3.204567       -0.850113
| 17>  C       -2.731233       -2.206002       -1.548770
| 18>  C       -2.223281       -1.102672       -0.876548
| 19>  O       -1.003879        1.044484        0.491622
| 20>  C        0.313031        0.668894        0.323618
| 21>  C        0.815271       -0.559080        0.715165
| 22>  C        2.160456       -0.834867        0.504158
| 23>  C        2.983323        0.098548       -0.095457
| 24>  C        2.465068        1.327172       -0.489481
| 25>  C        1.133147        1.614440       -0.279628
| 26>  C        4.448260       -0.177216       -0.319645
| 27>  F        5.211858        0.620659        0.440681
| 28>  F        4.773383       -1.439756       -0.030663
| 29>  F        4.793715        0.049474       -1.595021
| 30>  H       -3.768378        1.749796       -2.230795
| 31>  H       -3.070586        3.385948       -2.315345
| 32>  H       -4.688435        3.141913       -1.611144
| 33>  H       -2.933203        3.404963        0.057220
| 34>  H       -4.236645        0.789279       -0.084992
| 35>  H       -4.750052        2.200270        0.852078
| 36>  H       -3.698524        0.582692        2.349434
| 37>  H       -2.646272        1.980483        2.256659
| 38>  H       -1.360089       -0.088063        2.170579
| 39>  H       -3.122744       -1.942663        2.276161
| 40>  H       -4.030028       -3.887149        1.080710
| 41>  H       -3.781319       -4.066646       -1.373615
| 42>  H       -2.598056       -2.290299       -2.619479
| 43>  H       -1.676010       -0.349214       -1.430567
| 44>  H        0.185152       -1.314280        1.161538
| 45>  H        2.558701       -1.793219        0.806455
| 46>  H        3.108067        2.061213       -0.957203
| 47>  H        0.725500        2.574618       -0.568805
| 48>  H       -2.150805        2.073525       -0.467933
| 49> *
| 50>
| 51>
| 52>                          ****END OF INPUT****

CARTESIAN COORDINATES (ANGSTROEM)
---------------------------------
  C     -3.696693    2.714074   -1.734394
  N     -3.085782    2.507258   -0.397930
  C     -3.887146    1.626417    0.518572
  C     -3.041176    1.139480    1.681719
  C     -1.883796    0.224863    1.263568
  C     -2.369853   -0.991330    0.500641
  C     -3.020859   -2.004013    1.197957
  C     -3.530268   -3.103421    0.526786
  C     -3.389923   -3.204567   -0.850113
  C     -2.731233   -2.206002   -1.548770
  C     -2.223281   -1.102672   -0.876548
  O     -1.003879    1.044484    0.491622
  C      0.313031    0.668894    0.323618
  C      0.815271   -0.559080    0.715165
  C      2.160456   -0.834867    0.504158
  C      2.983323    0.098548   -0.095457
  C      2.465068    1.327172   -0.489481
  C      1.133147    1.614440   -0.279628
  C      4.448260   -0.177216   -0.319645
  F      5.211858    0.620659    0.440681
  F      4.773383   -1.439756   -0.030663
  F      4.793715    0.049474   -1.595021
  H     -3.768378    1.749796   -2.230795
  H     -3.070586    3.385948   -2.315345
  H     -4.688435    3.141913   -1.611144
  H     -2.933203    3.404963    0.057220
  H     -4.236645    0.789279   -0.084992
  H     -4.750052    2.200270    0.852078
  H     -3.698524    0.582692    2.349434
  H     -2.646272    1.980483    2.256659
  H     -1.360089   -0.088063    2.170579
  H     -3.122744   -1.942663    2.276161
  H     -4.030028   -3.887149    1.080710
  H     -3.781319   -4.066646   -1.373615
  H     -2.598056   -2.290299   -2.619479
  H     -1.676010   -0.349214   -1.430567
  H      0.185152   -1.314280    1.161538
  H      2.558701   -1.793219    0.806455
  H      3.108067    2.061213   -0.957203
  H      0.725500    2.574618   -0.568805
  H     -2.150805    2.073525   -0.467933

 Total Charge           Charge          ....    1
 Multiplicity           Mult            ....    1
 Number of Electrons    NEL             ....  162
 Basis Dimension        Dim             ....  948

ORBITAL ENERGIES
----------------

  NO   OCC          E(Eh)            E(eV)
   0   2.0000     -26.406760      -718.5645
   1   2.0000     -26.402421      -718.4464
   2   2.0000     -26.400774      -718.4016
   3   2.0000     -20.732318      -564.1551
   4   2.0000     -15.843464      -431.1226
   5   2.0000     -11.579305      -315.0889
   6   2.0000     -11.445906      -311.4589
   7   2.0000     -11.444163      -311.4115
   8   2.0000     -11.441320      -311.3341
   9   2.0000     -11.426144      -310.9212
  10   2.0000     -11.389674      -309.9288
  11   2.0000     -11.364360      -309.2400
  12   2.0000     -11.355935      -309.0107
  13   2.0000     -11.354619      -308.9749
  14   2.0000     -11.352866      -308.9272
  15   2.0000     -11.351089      -308.8788
  16   2.0000     -11.349845      -308.8450
  17   2.0000     -11.348797      -308.8165
  18   2.0000     -11.347874      -308.7914
  19   2.0000     -11.347144      -308.7715
  20   2.0000     -11.346747      -308.7607
  21   2.0000     -11.342357      -308.6412
  22   2.0000      -1.798703       -48.9452
  23   2.0000      -1.704214       -46.3740
  24   2.0000      -1.699032       -46.2330
  25   2.0000      -1.560474       -42.4627
  26   2.0000      -1.481394       -40.3108
  27   2.0000      -1.289460       -35.0880
  28   2.0000      -1.277252       -34.7558
  29   2.0000      -1.233907       -33.5763
  30   2.0000      -1.170197       -31.8427
  31   2.0000      -1.154218       -31.4079
  32   2.0000      -1.141883       -31.0722
  33   2.0000      -1.135543       -30.8997
  34   2.0000      -1.121244       -30.5106
  35   2.0000      -1.083725       -29.4897
  36   2.0000      -1.039666       -28.2907
  37   2.0000      -1.004236       -27.3267
  38   2.0000      -0.966108       -26.2891
  39   2.0000      -0.961693       -26.1690
  40   2.0000      -0.946133       -25.7456
  41   2.0000      -0.943922       -25.6854
  42   2.0000      -0.916136       -24.9293
  43   2.0000      -0.890847       -24.2412
  44   2.0000      -0.889350       -24.2004
  45   2.0000      -0.880457       -23.9585
  46   2.0000      -0.862569       -23.4717
  47   2.0000      -0.849587       -23.1184
  48   2.0000      -0.823657       -22.4128
  49   2.0000      -0.822235       -22.3742
  50   2.0000      -0.798915       -21.7396
  51   2.0000      -0.788409       -21.4537
  52   2.0000      -0.778125       -21.1739
  53   2.0000      -0.775013       -21.0892
  54   2.0000      -0.761188       -20.7130
  55   2.0000      -0.751470       -20.4485
  56   2.0000      -0.747677       -20.3453
  57   2.0000      -0.740862       -20.1599
  58   2.0000      -0.737076       -20.0569
  59   2.0000      -0.733927       -19.9712
  60   2.0000      -0.731697       -19.9105
  61   2.0000      -0.730672       -19.8826
  62   2.0000      -0.719964       -19.5912
  63   2.0000      -0.715463       -19.4687
  64   2.0000      -0.710112       -19.3231
  65   2.0000      -0.706015       -19.2116
  66   2.0000      -0.698095       -18.9961
  67   2.0000      -0.686760       -18.6877
  68   2.0000      -0.683144       -18.5893
  69   2.0000      -0.658923       -17.9302
  70   2.0000      -0.651972       -17.7411
  71   2.0000      -0.627850       -17.0847
  72   2.0000      -0.618873       -16.8404
  73   2.0000      -0.613945       -16.7063
  74   2.0000      -0.613366       -16.6905
  75   2.0000      -0.606056       -16.4916
  76   2.0000      -0.592367       -16.1191
  77   2.0000      -0.464220       -12.6321
  78   2.0000      -0.456528       -12.4228
  79   2.0000      -0.452145       -12.3035
  80   2.0000      -0.443188       -12.0598
  81   0.0000      -0.038421        -1.0455
  82   0.0000      -0.008061        -0.2194
  83   0.0000      -0.005360        -0.1459
  84   0.0000       0.007199         0.1959
  85   0.0000       0.014705         0.4001

MULLIKEN ATOMIC CHARGES
-----------------------
   0 C :   -0.113567
   1 N :    0.039207
   2 C :   -0.158351
   3 C :   -0.106621
   4 C :    0.286833
   5 C :    0.051366
   6 C :   -0.213145
   7 C :   -0.106588
   8 C :   -0.070009
   9 C :   -0.131267
  10 C :   -0.189924
  11 O :   -0.458411
  12 C :    0.340142
  13 C :   -0.089183
  14 C :   -0.156198
  15 C :   -0.028600
  16 C :   -0.091919
  17 C :   -0.228424
  18 C :    0.717475
  19 F :   -0.239309
  20 F :   -0.241241
  21 F :   -0.243331
  22 H :    0.119272
  23 H :    0.127335
  24 H :    0.124017
  25 H :    0.198386
  26 H :    0.142996
  27 H :    0.141369
  28 H :    0.100403
  29 H :    0.101229
  30 H :    0.131478
  31 H :    0.109093
  32 H :    0.124764
  33 H :    0.125051
  34 H :    0.121671
  35 H :    0.104471
  36 H :    0.100686
  37 H :    0.144250
  38 H :    0.124002
  39 H :    0.085996
  40 H :    0.204596
Sum of atomic charges:    1.0000000

LOEWDIN ATOMIC CHARGES
----------------------
   0 C :    0.090971
   1 N :    0.522821
   2 C :    0.039692
   3 C :    0.007368
   4 C :   -0.116594
   5 C :   -0.089354
   6 C :   -0.002732
   7 C :    0.012751
   8 C :    0.010039
   9 C :    0.003214
  10 C :   -0.017441
  11 O :    0.247244
  12 C :   -0.168360
  13 C :   -0.006337
  14 C :    0.044209
  15 C :   -0.084467
  16 C :    0.044471
  17 C :   -0.014229
  18 C :   -0.521941
  19 F :    0.156706
  20 F :    0.168664
  21 F :    0.157292
  22 H :    0.024775
  23 H :    0.022582
  24 H :    0.025258
  25 H :    0.041579
  26 H :    0.034164
  27 H :    0.028098
  28 H :    0.041133
  29 H :    0.028176
  30 H :    0.037612
  31 H :    0.024402
  32 H :    0.027605
  33 H :    0.026678
  34 H :    0.025188
  35 H :    0.014732
  36 H :    0.024021
  37 H :    0.035186
  38 H :    0.037320
  39 H :    0.016035
  40 H :    0.001468

  Mayer bond orders larger than 0.100000
B(  0-C ,  1-N ) :   0.8719 B(  0-C , 22-H ) :   0.9941 B(  0-C , 23-H ) :   0.9868
B(  0-C , 24-H ) :   0.9888 B(  1-N ,  2-C ) :   0.8547 B(  1-N , 25-H ) :   0.9555
B(  1-N , 40-H ) :   0.9292 B(  2-C ,  3-C ) :   0.9238 B(  2-C , 26-H ) :   1.0056
B(  2-C , 27-H ) :   1.0068 B(  3-C ,  4-C ) :   0.9216 B(  3-C , 28-H ) :   1.0194
B(  3-C , 29-H ) :   1.0203 B(  4-C ,  5-C ) :   0.8397 B(  4-C , 11-O ) :   0.8250
B(  4-C , 30-H ) :   1.0383 B(  5-C ,  6-C ) :   1.4126 B(  5-C , 10-C ) :   1.2850
B(  6-C ,  7-C ) :   1.5335 B(  6-C , 31-H ) :   0.9731 B(  7-C ,  8-C ) :   1.4603
B(  7-C , 32-H ) :   0.9656 B(  8-C ,  9-C ) :   1.4924 B(  8-C , 33-H ) :   0.9650
B(  9-C , 10-C ) :   1.5116 B(  9-C , 34-H ) :   0.9662 B( 10-C , 35-H ) :   0.9936
B( 11-O , 12-C ) :   0.9176 B( 12-C , 13-C ) :   1.4407 B( 12-C , 17-C ) :   1.4051
B( 13-C , 14-C ) :   1.4304 B( 13-C , 36-H ) :   0.9871 B( 14-C , 15-C ) :   1.4828
B( 14-C , 37-H ) :   0.9373 B( 15-C , 16-C ) :   1.4438 B( 15-C , 18-C ) :   1.0276
B( 16-C , 17-C ) :   1.5448 B( 16-C , 38-H ) :   0.9495 B( 17-C , 39-H ) :   0.9671
B( 18-C , 19-F ) :   1.0543 B( 18-C , 20-F ) :   1.0498 B( 18-C , 21-F ) :   1.0483

E(0)                                       ...  -1082.679102970
E(0)                                       ...  -1082.679102970
E(CORR)(strong-pairs)                      ...     -3.953040881
E(CORR)(weak-pairs)                        ...     -0.028122829
E(CORR)(corrected)                         ...     -3.981163710
E(TOT)                                     ...  -1086.660266680
E(CCSD(T))                                 ...  -1086.829428128
FINAL SINGLE POINT ENERGY     -1086.829428128462

DIPOLE MOMENT
-------------
                                X             Y             Z
Electronic contribution:     46.31711      -6.01015      -0.97511
Nuclear contribution   :    -52.75459       9.02041       0.90220
                        -----------------------------------------
Total Dipole Moment    :     -6.43747       3.01027      -0.07291
                        -----------------------------------------
Magnitude (a.u.)       :      7.10691
Magnitude (Debye)      :     18.06432

Rotational constants in cm-1:     0.015059     0.004654     0.004033
Rotational constants in MHz :   451.465093   139.518705   120.910138

                             ****ORCA TERMINATED NORMALLY****
TOTAL RUN TIME: 0 days 1 hours 3 minutes 12 seconds 131 msec
