                         Program Version 5.0.3 -  RELEASE  -
|  1> ! DLPNO-CCSD(T) def2-TZVPP def2-TZVPP/C VeryTightSCF
|  2> %maxcore 3400
|  3>
|  4> %pal nprocs 8
|  5> end
|  6>
|  7> *xyz 1 1
|  8>  C       -2.107658        4.420078        0.926508
|  9>  N       -1.950842        3.051539        0.374685
| 10>  C       -3.202010        2.461800       -0.204178
| 11>  C       -2.982758        1.041733       -0.702375
| 12>  C       -2.660588        0.044621        0.412258
| 13>  C       -2.532197       -1.404740       -0.008036
| 14>  C       -2.063354       -2.322517        0.928066
| 15>  C       -1.941419       -3.660586        0.598460
| 16>  C       -2.296608       -4.101471       -0.668735
| 17>  C       -2.775491       -3.196794       -1.600622
| 18>  C       -2.892168       -1.852954       -1.272680
| 19>  O       -1.536480        0.500648        1.195413
| 20>  C       -0.236926        0.442427        0.744523
| 21>  C        0.699171        0.941672        1.644037
| 22>  C        2.037481        0.988630        1.298944
| 23>  C        2.447382        0.535354        0.054791
| 24>  C        1.512917        0.030587       -0.834665
| 25>  C        0.168005       -0.018806       -0.502840
| 26>  C        3.895405        0.600391       -0.359926
| 27>  F        4.302113       -0.554878       -0.897334
| 28>  F        4.085898        1.554214       -1.286468
| 29>  F        4.698202        0.877987        0.670269
| 30>  H       -2.445765        5.086230        0.136911
| 31>  H       -1.150196        4.757191        1.314423
| 32>  H       -2.842200        4.391335        1.726883
| 33>  H       -1.632137        2.386564        1.092325
| 34>  H       -3.524537        3.119833       -1.009787
| 35>  H       -3.950708        2.496919        0.587948
| 36>  H       -2.221020        1.031284       -1.485026
| 37>  H       -3.915044        0.734907       -1.177119
| 38>  H       -3.469256        0.104947        1.145910
| 39>  H       -1.782432       -1.985781        1.918389
| 40>  H       -1.570560       -4.362600        1.333561
| 41>  H       -2.202187       -5.148040       -0.926317
| 42>  H       -3.059178       -3.532784       -2.589271
| 43>  H       -3.264394       -1.168974       -2.024696
| 44>  H        0.369832        1.260242        2.625313
| 45>  H        2.762988        1.366683        2.005773
| 46>  H        1.832485       -0.341106       -1.799585
| 47>  H       -0.530084       -0.453048       -1.200872
| 48>  H       -1.217700        3.043754       -0.333903
| 49> *
| 50>
| 51>
| 52>                          ****END OF INPUT****

CARTESIAN COORDINATES (ANGSTROEM)
---------------------------------
  C     -2.107658    4.420078    0.926508
  N     -1.950842    3.051539    0.374685
  C     -3.202010    2.461800   -0.204178
  C     -2.982758    1.041733   -0.702375
  C     -2.660588    0.044621    0.412258
  C     -2.532197   -1.404740   -0.008036
  C     -2.063354   -2.322517    0.928066
  C     -1.941419   -3.660586    0.598460
  C     -2.296608   -4.101471   -0.668735
  C     -2.775491   -3.196794   -1.600622
  C     -2.892168   -1.852954   -1.272680
  O     -1.536480    0.500648    1.195413
  C     -0.236926    0.442427    0.744523
  C      0.699171    0.941672    1.644037
  C      2.037481    0.988630    1.298944
  C      2.447382    0.535354    0.054791
  C      1.512917    0.030587   -0.834665
  C      0.168005   -0.018806   -0.502840
  C      3.895405    0.600391   -0.359926
  F      4.302113   -0.554878   -0.897334
  F      4.085898    1.554214   -1.286468
  F      4.698202    0.877987    0.670269
  H     -2.445765    5.086230    0.136911
  H     -1.150196    4.757191    1.314423
  H     -2.842200    4.391335    1.726883
  H     -1.632137    2.386564    1.092325
  H     -3.524537    3.119833   -1.009787
  H     -3.950708    2.496919    0.587948
  H     -2.221020    1.031284   -1.485026
  H     -3.915044    0.734907   -1.177119
  H     -3.469256    0.104947    1.145910
  H     -1.782432   -1.985781    1.918389
  H     -1.570560   -4.362600    1.333561
  H     -2.202187   -5.148040   -0.926317
  H     -3.059178   -3.532784   -2.589271
  H     -3.264394   -1.168974   -2.024696
  H      0.369832    1.260242    2.625313
  H      2.762988    1.366683    2.005773
  H      1.832485   -0.341106   -1.799585
  H     -0.530084   -0.453048   -1.200872
  H     -1.217700    3.043754   -0.333903

 Total Charge           Charge          ....    1
 Multiplicity           Mult            ....    1
 Number of Electrons    NEL             ....  162
 Basis Dimension        Dim             ....  948

ORBITAL ENERGIES
----------------

  NO   OCC          E(Eh)            E(eV)
   0   2.0000     -26.416420      -718.8273
   1   2.0000     -26.412462      -718.7196
   2   2.0000     -26.411176      -718.6846
   3   2.0000     -20.729704      -564.0839
   4   2.0000     -15.847940      -431.2444
   5   2.0000     -11.589566      -315.3681
   6   2.0000     -11.454140      -311.6830
   7   2.0000     -11.446876      -311.4853
   8   2.0000     -11.442081      -311.3549
   9   2.0000     -11.435828      -311.1847
  10   2.0000     -11.392636      -310.0094
  11   2.0000     -11.367076      -309.3139
  12   2.0000     -11.366258      -309.2916
  13   2.0000     -11.360936      -309.1468
  14   2.0000     -11.358382      -309.0773
  15   2.0000     -11.356728      -309.0323
  16   2.0000     -11.354631      -308.9752
  17   2.0000     -11.342737      -308.6516
  18   2.0000     -11.337094      -308.4980
  19   2.0000     -11.334574      -308.4294
  20   2.0000     -11.333115      -308.3897
  21   2.0000     -11.331040      -308.3333
  22   2.0000      -1.808789       -49.2196
  23   2.0000      -1.714283       -46.6480
  24   2.0000      -1.709236       -46.5107
  25   2.0000      -1.556411       -42.3521
  26   2.0000      -1.485570       -40.4244
  27   2.0000      -1.293379       -35.1946
  28   2.0000      -1.271879       -34.6096
  29   2.0000      -1.235019       -33.6066
  30   2.0000      -1.178097       -32.0577
  31   2.0000      -1.157581       -31.4994
  32   2.0000      -1.149147       -31.2699
  33   2.0000      -1.124343       -30.5949
  34   2.0000      -1.120839       -30.4996
  35   2.0000      -1.080377       -29.3985
  36   2.0000      -1.052333       -28.6354
  37   2.0000      -1.007958       -27.4279
  38   2.0000      -0.976304       -26.5666
  39   2.0000      -0.957417       -26.0526
  40   2.0000      -0.951714       -25.8974
  41   2.0000      -0.933573       -25.4038
  42   2.0000      -0.911840       -24.8124
  43   2.0000      -0.901176       -24.5222
  44   2.0000      -0.900225       -24.4964
  45   2.0000      -0.890463       -24.2307
  46   2.0000      -0.861904       -23.4536
  47   2.0000      -0.844692       -22.9852
  48   2.0000      -0.827698       -22.5228
  49   2.0000      -0.816971       -22.2309
  50   2.0000      -0.807792       -21.9811
  51   2.0000      -0.788479       -21.4556
  52   2.0000      -0.786203       -21.3937
  53   2.0000      -0.771993       -21.0070
  54   2.0000      -0.765501       -20.8303
  55   2.0000      -0.758149       -20.6303
  56   2.0000      -0.748556       -20.3692
  57   2.0000      -0.743141       -20.2219
  58   2.0000      -0.740856       -20.1597
  59   2.0000      -0.739672       -20.1275
  60   2.0000      -0.738010       -20.0823
  61   2.0000      -0.729749       -19.8575
  62   2.0000      -0.725707       -19.7475
  63   2.0000      -0.723288       -19.6817
  64   2.0000      -0.716707       -19.5026
  65   2.0000      -0.710986       -19.3469
  66   2.0000      -0.699930       -19.0461
  67   2.0000      -0.688943       -18.7471
  68   2.0000      -0.679239       -18.4830
  69   2.0000      -0.659527       -17.9466
  70   2.0000      -0.649981       -17.6869
  71   2.0000      -0.637932       -17.3590
  72   2.0000      -0.624492       -16.9933
  73   2.0000      -0.613183       -16.6856
  74   2.0000      -0.602884       -16.4053
  75   2.0000      -0.593540       -16.1510
  76   2.0000      -0.589978       -16.0541
  77   2.0000      -0.472508       -12.8576
  78   2.0000      -0.456094       -12.4110
  79   2.0000      -0.444435       -12.0937
  80   2.0000      -0.439659       -11.9637
  81   0.0000      -0.036457        -0.9920
  82   0.0000      -0.014243        -0.3876
  83   0.0000      -0.002635        -0.0717
  84   0.0000       0.002072         0.0564
  85   0.0000       0.013179         0.3586

MULLIKEN ATOMIC CHARGES
-----------------------
   0 C :   -0.116859
   1 N :    0.052551
   2 C :   -0.154232
   3 C :   -0.165438
   4 C :    0.370004
   5 C :    0.041702
   6 C :   -0.200432
   7 C :   -0.108358
   8 C :   -0.080786
   9 C :   -0.094079
  10 C :   -0.205229
  11 O :   -0.427998
  12 C :    0.191913
  13 C :   -0.228625
  14 C :   -0.064166
  15 C :   -0.001370
  16 C :   -0.213990
  17 C :   -0.038044
  18 C :    0.715558
  19 F :   -0.238102
  20 F :   -0.242851
  21 F :   -0.239490
  22 H :    0.122470
  23 H :    0.131318
  24 H :    0.122739
  25 H :    0.212574
  26 H :    0.134332
  27 H :    0.127664
  28 H :    0.091486
  29 H :    0.115190
  30 H :    0.108128
  31 H :    0.112419
  32 H :    0.119573
  33 H :    0.121449
  34 H :    0.118653
  35 H :    0.091941
  36 H :    0.133664
  37 H :    0.147202
  38 H :    0.129822
  39 H :    0.109968
  40 H :    0.197730
Sum of atomic charges:    1.0000000

LOEWDIN ATOMIC CHARGES
----------------------
   0 C :    0.094537
   1 N :    0.522264
   2 C :    0.038630
   3 C :   -0.002559
   4 C :   -0.110579
   5 C :   -0.085385
   6 C :    0.010798
   7 C :    0.010494
   8 C :    0.012815
   9 C :    0.003989
  10 C :   -0.012674
  11 O :    0.237732
  12 C :   -0.192415
  13 C :   -0.022796
  14 C :    0.038821
  15 C :   -0.086261
  16 C :    0.044180
  17 C :   -0.013797
  18 C :   -0.522704
  19 F :    0.165025
  20 F :    0.150580
  21 F :    0.169730
  22 H :    0.024881
  23 H :    0.024665
  24 H :    0.025505
  25 H :    0.017600
  26 H :    0.031004
  27 H :    0.033295
  28 H :    0.024928
  29 H :    0.042564
  30 H :    0.038613
  31 H :    0.026228
  32 H :    0.026247
  33 H :    0.026267
  34 H :    0.024787
  35 H :    0.016154
  36 H :    0.024305
  37 H :    0.035678
  38 H :    0.038772
  39 H :    0.021598
  40 H :    0.046482

  Mayer bond orders larger than 0.100000
B(  0-C ,  1-N ) :   0.8736 B(  0-C , 22-H ) :   0.9898 B(  0-C , 23-H ) :   0.9859
B(  0-C , 24-H ) :   0.9935 B(  1-N ,  2-C ) :   0.8677 B(  1-N , 25-H ) :   0.9274
B(  1-N , 40-H ) :   0.9506 B(  2-C ,  3-C ) :   0.9266 B(  2-C , 26-H ) :   1.0184
B(  2-C , 27-H ) :   1.0211 B(  3-C ,  4-C ) :   0.8679 B(  3-C , 28-H ) :   1.0331
B(  3-C , 29-H ) :   1.0150 B(  4-C ,  5-C ) :   0.9231 B(  4-C , 11-O ) :   0.8201
B(  4-C , 30-H ) :   0.9944 B(  5-C ,  6-C ) :   1.4182 B(  5-C , 10-C ) :   1.3451
B(  6-C ,  7-C ) :   1.5382 B(  6-C , 31-H ) :   0.9704 B(  7-C ,  8-C ) :   1.4558
B(  7-C , 32-H ) :   0.9667 B(  8-C ,  9-C ) :   1.4923 B(  8-C , 33-H ) :   0.9654
B(  9-C , 10-C ) :   1.4980 B(  9-C , 34-H ) :   0.9669 B( 10-C , 35-H ) :   0.9906
B( 11-O , 12-C ) :   0.9180 B( 12-C , 13-C ) :   1.4459 B( 12-C , 17-C ) :   1.3851
B( 13-C , 14-C ) :   1.4859 B( 13-C , 36-H ) :   0.9638 B( 14-C , 15-C ) :   1.4243
B( 14-C , 37-H ) :   0.9450 B( 15-C , 16-C ) :   1.4981 B( 15-C , 18-C ) :   1.0267
B( 16-C , 17-C ) :   1.4620 B( 16-C , 38-H ) :   0.9471 B( 17-C , 39-H ) :   0.9885
B( 18-C , 19-F ) :   1.0556 B( 18-C , 20-F ) :   1.0462 B( 18-C , 21-F ) :   1.0513

E(0)                                       ...  -1082.668706936
E(0)                                       ...  -1082.668706936
E(CORR)(strong-pairs)                      ...     -3.955031646
E(CORR)(weak-pairs)                        ...     -0.027696681
E(CORR)(corrected)                         ...     -3.982728327
E(TOT)                                     ...  -1086.651435262
E(CCSD(T))                                 ...  -1086.821054107
FINAL SINGLE POINT ENERGY     -1086.821054107257

DIPOLE MOMENT
-------------
                                X             Y             Z
Electronic contribution:     38.43089      -4.73697      -2.19944
Nuclear contribution   :    -43.06866       8.40566       2.56264
                        -----------------------------------------
Total Dipole Moment    :     -4.63777       3.66869       0.36320
                        -----------------------------------------
Magnitude (a.u.)       :      5.92453
Magnitude (Debye)      :     15.05897

Rotational constants in cm-1:     0.011044     0.006054     0.004431
Rotational constants in MHz :   331.103933   181.500481   132.826411

                             ****ORCA TERMINATED NORMALLY****
TOTAL RUN TIME: 0 days 1 hours 4 minutes 3 seconds 616 msec
