                         Program Version 5.0.3 -  RELEASE  -
|  1> ! DLPNO-CCSD(T) def2-TZVPP def2-TZVPP/C VeryTightSCF
|  2> %maxcore 3400
|  3>
|  4> %pal nprocs 8
|  5> end
|  6>
|  7> *xyz 1 1
|  8>  C       -1.307520        2.907274       -0.799633
|  9>  N       -2.307001        1.812480       -0.930063
| 10>  C       -3.072624        1.496990        0.328010
| 11>  C       -2.238438        0.686109        1.305256
| 12>  C       -1.788535       -0.673569        0.743858
| 13>  C       -2.958995       -1.498301        0.249893
| 14>  C       -3.126008       -1.826687       -1.089305
| 15>  C       -4.240184       -2.548769       -1.499017
| 16>  C       -5.190947       -2.950172       -0.576777
| 17>  C       -5.020820       -2.637373        0.765072
| 18>  C       -3.912569       -1.916659        1.174843
| 19>  O       -0.895707       -0.462261       -0.352574
| 20>  C        0.415955       -0.118395       -0.133574
| 21>  C        1.154031        0.135940       -1.285903
| 22>  C        2.475619        0.516657       -1.185117
| 23>  C        3.071072        0.643396        0.064824
| 24>  C        2.337957        0.375247        1.204730
| 25>  C        1.004884       -0.006909        1.116103
| 26>  C        4.501440        1.110975        0.155978
| 27>  F        5.263988        0.534866       -0.779134
| 28>  F        4.581477        2.438766       -0.032260
| 29>  F        5.040807        0.844111        1.347795
| 30>  H       -0.567084        2.622134       -0.057645
| 31>  H       -1.817601        3.817834       -0.496453
| 32>  H       -0.816532        3.052132       -1.758153
| 33>  H       -1.815086        0.945851       -1.193345
| 34>  H       -3.953392        0.934596        0.020120
| 35>  H       -3.392232        2.444702        0.758017
| 36>  H       -2.857266        0.518441        2.186757
| 37>  H       -1.372001        1.255229        1.645884
| 38>  H       -1.271057       -1.233239        1.525015
| 39>  H       -2.371803       -1.555042       -1.815428
| 40>  H       -4.354275       -2.807923       -2.543565
| 41>  H       -6.055006       -3.516994       -0.896972
| 42>  H       -5.749063       -2.963779        1.495774
| 43>  H       -3.784942       -1.695471        2.228812
| 44>  H        0.688184        0.003104       -2.254350
| 45>  H        3.052228        0.704575       -2.081199
| 46>  H        2.801965        0.458397        2.177871
| 47>  H        0.462136       -0.219234        2.025454
| 48>  H       -2.964213        2.037799       -1.672260
| 49> *
| 50>
| 51>
| 52>                          ****END OF INPUT****

CARTESIAN COORDINATES (ANGSTROEM)
---------------------------------
  C     -1.307520    2.907274   -0.799633
  N     -2.307001    1.812480   -0.930063
  C     -3.072624    1.496990    0.328010
  C     -2.238438    0.686109    1.305256
  C     -1.788535   -0.673569    0.743858
  C     -2.958995   -1.498301    0.249893
  C     -3.126008   -1.826687   -1.089305
  C     -4.240184   -2.548769   -1.499017
  C     -5.190947   -2.950172   -0.576777
  C     -5.020820   -2.637373    0.765072
  C     -3.912569   -1.916659    1.174843
  O     -0.895707   -0.462261   -0.352574
  C      0.415955   -0.118395   -0.133574
  C      1.154031    0.135940   -1.285903
  C      2.475619    0.516657   -1.185117
  C      3.071072    0.643396    0.064824
  C      2.337957    0.375247    1.204730
  C      1.004884   -0.006909    1.116103
  C      4.501440    1.110975    0.155978
  F      5.263988    0.534866   -0.779134
  F      4.581477    2.438766   -0.032260
  F      5.040807    0.844111    1.347795
  H     -0.567084    2.622134   -0.057645
  H     -1.817601    3.817834   -0.496453
  H     -0.816532    3.052132   -1.758153
  H     -1.815086    0.945851   -1.193345
  H     -3.953392    0.934596    0.020120
  H     -3.392232    2.444702    0.758017
  H     -2.857266    0.518441    2.186757
  H     -1.372001    1.255229    1.645884
  H     -1.271057   -1.233239    1.525015
  H     -2.371803   -1.555042   -1.815428
  H     -4.354275   -2.807923   -2.543565
  H     -6.055006   -3.516994   -0.896972
  H     -5.749063   -2.963779    1.495774
  H     -3.784942   -1.695471    2.228812
  H      0.688184    0.003104   -2.254350
  H      3.052228    0.704575   -2.081199
  H      2.801965    0.458397    2.177871
  H      0.462136   -0.219234    2.025454
  H     -2.964213    2.037799   -1.672260

 Total Charge           Charge          ....    1
 Multiplicity           Mult            ....    1
 Number of Electrons    NEL             ....  162
 Basis Dimension        Dim             ....  948

ORBITAL ENERGIES
----------------

  NO   OCC          E(Eh)            E(eV)
   0   2.0000     -26.415967      -718.8150
   1   2.0000     -26.413198      -718.7396
   2   2.0000     -26.410663      -718.6707
   3   2.0000     -20.734242      -564.2074
   4   2.0000     -15.845374      -431.1746
   5   2.0000     -11.589604      -315.3692
   6   2.0000     -11.446986      -311.4883
   7   2.0000     -11.443235      -311.3863
   8   2.0000     -11.442476      -311.3656
   9   2.0000     -11.438588      -311.2598
  10   2.0000     -11.389845      -309.9334
  11   2.0000     -11.368510      -309.3529
  12   2.0000     -11.368145      -309.3430
  13   2.0000     -11.363921      -309.2280
  14   2.0000     -11.361535      -309.1631
  15   2.0000     -11.361323      -309.1573
  16   2.0000     -11.358414      -309.0782
  17   2.0000     -11.348542      -308.8095
  18   2.0000     -11.348291      -308.8027
  19   2.0000     -11.344080      -308.6881
  20   2.0000     -11.343800      -308.6805
  21   2.0000     -11.339085      -308.5522
  22   2.0000      -1.808746       -49.2185
  23   2.0000      -1.714269       -46.6476
  24   2.0000      -1.709178       -46.5091
  25   2.0000      -1.565320       -42.5945
  26   2.0000      -1.481114       -40.3032
  27   2.0000      -1.297166       -35.2977
  28   2.0000      -1.278824       -34.7986
  29   2.0000      -1.232745       -33.5447
  30   2.0000      -1.178441       -32.0670
  31   2.0000      -1.157189       -31.4887
  32   2.0000      -1.151635       -31.3376
  33   2.0000      -1.132535       -30.8179
  34   2.0000      -1.127147       -30.6712
  35   2.0000      -1.080078       -29.3904
  36   2.0000      -1.049793       -28.5663
  37   2.0000      -1.004356       -27.3299
  38   2.0000      -0.977951       -26.6114
  39   2.0000      -0.966826       -26.3087
  40   2.0000      -0.943726       -25.6801
  41   2.0000      -0.940104       -25.5815
  42   2.0000      -0.913629       -24.8611
  43   2.0000      -0.901188       -24.5226
  44   2.0000      -0.898520       -24.4500
  45   2.0000      -0.890584       -24.2340
  46   2.0000      -0.879455       -23.9312
  47   2.0000      -0.850171       -23.1343
  48   2.0000      -0.834535       -22.7088
  49   2.0000      -0.818559       -22.2741
  50   2.0000      -0.796839       -21.6831
  51   2.0000      -0.791258       -21.5312
  52   2.0000      -0.787813       -21.4375
  53   2.0000      -0.778135       -21.1741
  54   2.0000      -0.766168       -20.8485
  55   2.0000      -0.757927       -20.6242
  56   2.0000      -0.750832       -20.4312
  57   2.0000      -0.745119       -20.2757
  58   2.0000      -0.740997       -20.1636
  59   2.0000      -0.740582       -20.1523
  60   2.0000      -0.738872       -20.1057
  61   2.0000      -0.734172       -19.9778
  62   2.0000      -0.726268       -19.7628
  63   2.0000      -0.724858       -19.7244
  64   2.0000      -0.716383       -19.4938
  65   2.0000      -0.707793       -19.2600
  66   2.0000      -0.702265       -19.1096
  67   2.0000      -0.698594       -19.0097
  68   2.0000      -0.675831       -18.3903
  69   2.0000      -0.661165       -17.9912
  70   2.0000      -0.654935       -17.8217
  71   2.0000      -0.637633       -17.3509
  72   2.0000      -0.623463       -16.9653
  73   2.0000      -0.620306       -16.8794
  74   2.0000      -0.607689       -16.5361
  75   2.0000      -0.603251       -16.4153
  76   2.0000      -0.598577       -16.2881
  77   2.0000      -0.473451       -12.8833
  78   2.0000      -0.457569       -12.4511
  79   2.0000      -0.452642       -12.3170
  80   2.0000      -0.449536       -12.2325
  81   0.0000      -0.036142        -0.9835
  82   0.0000      -0.009091        -0.2474
  83   0.0000      -0.006631        -0.1805
  84   0.0000       0.002935         0.0799
  85   0.0000       0.005676         0.1544

MULLIKEN ATOMIC CHARGES
-----------------------
   0 C :   -0.130004
   1 N :    0.032008
   2 C :   -0.122200
   3 C :   -0.190289
   4 C :    0.297687
   5 C :    0.064192
   6 C :   -0.186492
   7 C :   -0.113489
   8 C :   -0.071867
   9 C :   -0.116595
  10 C :   -0.211882
  11 O :   -0.427932
  12 C :    0.303831
  13 C :   -0.257415
  14 C :   -0.057704
  15 C :   -0.039319
  16 C :   -0.137689
  17 C :   -0.140151
  18 C :    0.712336
  19 F :   -0.238373
  20 F :   -0.241322
  21 F :   -0.238709
  22 H :    0.125647
  23 H :    0.125587
  24 H :    0.129599
  25 H :    0.199510
  26 H :    0.152129
  27 H :    0.145407
  28 H :    0.116432
  29 H :    0.102614
  30 H :    0.123014
  31 H :    0.116982
  32 H :    0.120727
  33 H :    0.123790
  34 H :    0.123221
  35 H :    0.102905
  36 H :    0.113710
  37 H :    0.135740
  38 H :    0.145362
  39 H :    0.101979
  40 H :    0.207024
Sum of atomic charges:    1.0000000

LOEWDIN ATOMIC CHARGES
----------------------
   0 C :    0.094761
   1 N :    0.527295
   2 C :    0.045026
   3 C :    0.003484
   4 C :   -0.108678
   5 C :   -0.077641
   6 C :   -0.017153
   7 C :    0.004260
   8 C :    0.008532
   9 C :    0.010295
  10 C :   -0.003941
  11 O :    0.257576
  12 C :   -0.181009
  13 C :   -0.015507
  14 C :    0.044325
  15 C :   -0.085401
  16 C :    0.043521
  17 C :   -0.022168
  18 C :   -0.522982
  19 F :    0.166077
  20 F :    0.150461
  21 F :    0.170051
  22 H :    0.024349
  23 H :    0.022825
  24 H :    0.023804
  25 H :    0.011545
  26 H :    0.033176
  27 H :    0.029084
  28 H :    0.039856
  29 H :    0.021030
  30 H :    0.034168
  31 H :    0.013113
  32 H :    0.025113
  33 H :    0.026290
  34 H :    0.027036
  35 H :    0.022262
  36 H :    0.022133
  37 H :    0.038424
  38 H :    0.036695
  39 H :    0.017557
  40 H :    0.040358

  Mayer bond orders larger than 0.100000
B(  0-C ,  1-N ) :   0.8753 B(  0-C , 22-H ) :   0.9873 B(  0-C , 23-H ) :   0.9930
B(  0-C , 24-H ) :   0.9880 B(  1-N ,  2-C ) :   0.8375 B(  1-N , 25-H ) :   0.9362
B(  1-N , 40-H ) :   0.9552 B(  2-C ,  3-C ) :   0.9216 B(  2-C , 26-H ) :   1.0048
B(  2-C , 27-H ) :   1.0150 B(  3-C ,  4-C ) :   0.8999 B(  3-C , 28-H ) :   1.0091
B(  3-C , 29-H ) :   1.0226 B(  4-C ,  5-C ) :   0.8981 B(  4-C , 11-O ) :   0.7833
B(  4-C , 30-H ) :   1.0229 B(  5-C ,  6-C ) :   1.3378 B(  5-C , 10-C ) :   1.3993
B(  6-C ,  7-C ) :   1.4923 B(  6-C , 31-H ) :   0.9727 B(  7-C ,  8-C ) :   1.4940
B(  7-C , 32-H ) :   0.9677 B(  8-C ,  9-C ) :   1.4529 B(  8-C , 33-H ) :   0.9662
B(  9-C , 10-C ) :   1.5364 B(  9-C , 34-H ) :   0.9657 B( 10-C , 35-H ) :   0.9759
B( 11-O , 12-C ) :   0.9701 B( 12-C , 13-C ) :   1.3890 B( 12-C , 17-C ) :   1.4228
B( 13-C , 14-C ) :   1.5220 B( 13-C , 36-H ) :   0.9777 B( 14-C , 15-C ) :   1.4291
B( 14-C , 37-H ) :   0.9464 B( 15-C , 16-C ) :   1.4836 B( 15-C , 18-C ) :   1.0316
B( 16-C , 17-C ) :   1.4467 B( 16-C , 38-H ) :   0.9397 B( 17-C , 39-H ) :   0.9916
B( 18-C , 19-F ) :   1.0532 B( 18-C , 20-F ) :   1.0466 B( 18-C , 21-F ) :   1.0514

E(0)                                       ...  -1082.673410995
E(0)                                       ...  -1082.673410995
E(CORR)(strong-pairs)                      ...     -3.954249635
E(CORR)(weak-pairs)                        ...     -0.028760097
E(CORR)(corrected)                         ...     -3.983009731
E(TOT)                                     ...  -1086.656420726
E(CCSD(T))                                 ...  -1086.825800769
FINAL SINGLE POINT ENERGY     -1086.825800769214

DIPOLE MOMENT
-------------
                                X             Y             Z
Electronic contribution:     42.08201       1.93622       0.47331
Nuclear contribution   :    -46.98328       0.01846      -1.03770
                        -----------------------------------------
Total Dipole Moment    :     -4.90127       1.95468      -0.56439
                        -----------------------------------------
Magnitude (a.u.)       :      5.30677
Magnitude (Debye)      :     13.48873

Rotational constants in cm-1:     0.021932     0.003924     0.003752
Rotational constants in MHz :   657.513477   117.635587   112.483240

                             ****ORCA TERMINATED NORMALLY****
TOTAL RUN TIME: 0 days 0 hours 55 minutes 13 seconds 127 msec
