                         Program Version 5.0.3 -  RELEASE  -
|  1> ! DLPNO-CCSD(T) def2-TZVPP def2-TZVPP/C VeryTightSCF
|  2> %maxcore 3400
|  3>
|  4> %pal nprocs 8
|  5> end
|  6>
|  7> *xyz 1 1
|  8>  C       -5.021434        1.978065       -1.452462
|  9>  N       -4.386760        1.312046       -0.286374
| 10>  C       -3.423755        2.184523        0.468035
| 11>  C       -2.769989        1.462492        1.635812
| 12>  C       -1.675769        0.465503        1.233844
| 13>  C       -2.227100       -0.660892        0.374510
| 14>  C       -3.035758       -1.633863        0.957336
| 15>  C       -3.641163       -2.606790        0.176692
| 16>  C       -3.441778       -2.621842       -1.197753
| 17>  C       -2.620763       -1.669941       -1.783147
| 18>  C       -2.013588       -0.692524       -1.001755
| 19>  O       -0.701177        1.230805        0.567756
| 20>  C        0.565535        0.728183        0.412107
| 21>  C        0.955000       -0.538672        0.819298
| 22>  C        2.266224       -0.942562        0.610891
| 23>  C        3.173924       -0.096500        0.001604
| 24>  C        2.772281        1.169726       -0.406776
| 25>  C        1.472734        1.583632       -0.201433
| 26>  C        4.579486       -0.563065       -0.270188
| 27>  F        5.451905        0.451196       -0.243475
| 28>  F        4.984796       -1.471643        0.624612
| 29>  F        4.674856       -1.133581       -1.482613
| 30>  H       -5.558609        2.859266       -1.111561
| 31>  H       -5.706125        1.282285       -1.929745
| 32>  H       -4.240438        2.266371       -2.150963
| 33>  H       -3.873057        0.477672       -0.600239
| 34>  H       -3.990146        3.050694        0.806340
| 35>  H       -2.675657        2.517582       -0.250509
| 36>  H       -3.520673        0.957792        2.248911
| 37>  H       -2.313144        2.225197        2.266665
| 38>  H       -1.260460        0.047156        2.156152
| 39>  H       -3.186443       -1.639444        2.031565
| 40>  H       -4.260594       -3.361951        0.642835
| 41>  H       -3.907817       -3.385897       -1.805644
| 42>  H       -2.435545       -1.694108       -2.849275
| 43>  H       -1.355276        0.035272       -1.459815
| 44>  H        0.263330       -1.225397        1.285574
| 45>  H        2.575720       -1.928403        0.930258
| 46>  H        3.481265        1.836770       -0.878123
| 47>  H        1.148443        2.570949       -0.501565
| 48>  H       -5.102575        0.972693        0.353547
| 49> *
| 50>
| 51>
| 52>                          ****END OF INPUT****

CARTESIAN COORDINATES (ANGSTROEM)
---------------------------------
  C     -5.021434    1.978065   -1.452462
  N     -4.386760    1.312046   -0.286374
  C     -3.423755    2.184523    0.468035
  C     -2.769989    1.462492    1.635812
  C     -1.675769    0.465503    1.233844
  C     -2.227100   -0.660892    0.374510
  C     -3.035758   -1.633863    0.957336
  C     -3.641163   -2.606790    0.176692
  C     -3.441778   -2.621842   -1.197753
  C     -2.620763   -1.669941   -1.783147
  C     -2.013588   -0.692524   -1.001755
  O     -0.701177    1.230805    0.567756
  C      0.565535    0.728183    0.412107
  C      0.955000   -0.538672    0.819298
  C      2.266224   -0.942562    0.610891
  C      3.173924   -0.096500    0.001604
  C      2.772281    1.169726   -0.406776
  C      1.472734    1.583632   -0.201433
  C      4.579486   -0.563065   -0.270188
  F      5.451905    0.451196   -0.243475
  F      4.984796   -1.471643    0.624612
  F      4.674856   -1.133581   -1.482613
  H     -5.558609    2.859266   -1.111561
  H     -5.706125    1.282285   -1.929745
  H     -4.240438    2.266371   -2.150963
  H     -3.873057    0.477672   -0.600239
  H     -3.990146    3.050694    0.806340
  H     -2.675657    2.517582   -0.250509
  H     -3.520673    0.957792    2.248911
  H     -2.313144    2.225197    2.266665
  H     -1.260460    0.047156    2.156152
  H     -3.186443   -1.639444    2.031565
  H     -4.260594   -3.361951    0.642835
  H     -3.907817   -3.385897   -1.805644
  H     -2.435545   -1.694108   -2.849275
  H     -1.355276    0.035272   -1.459815
  H      0.263330   -1.225397    1.285574
  H      2.575720   -1.928403    0.930258
  H      3.481265    1.836770   -0.878123
  H      1.148443    2.570949   -0.501565
  H     -5.102575    0.972693    0.353547

 Total Charge           Charge          ....    1
 Multiplicity           Mult            ....    1
 Number of Electrons    NEL             ....  162
 Basis Dimension        Dim             ....  948

ORBITAL ENERGIES
----------------

  NO   OCC          E(Eh)            E(eV)
   0   2.0000     -26.397237      -718.3053
   1   2.0000     -26.396722      -718.2913
   2   2.0000     -26.392008      -718.1631
   3   2.0000     -20.710914      -563.5726
   4   2.0000     -15.847642      -431.2363
   5   2.0000     -11.570720      -314.8553
   6   2.0000     -11.447122      -311.4920
   7   2.0000     -11.445793      -311.4559
   8   2.0000     -11.436874      -311.2132
   9   2.0000     -11.412206      -310.5419
  10   2.0000     -11.388978      -309.9099
  11   2.0000     -11.379437      -309.6502
  12   2.0000     -11.369126      -309.3696
  13   2.0000     -11.368253      -309.3459
  14   2.0000     -11.367406      -309.3228
  15   2.0000     -11.366753      -309.3051
  16   2.0000     -11.362219      -309.1817
  17   2.0000     -11.344551      -308.7009
  18   2.0000     -11.342866      -308.6551
  19   2.0000     -11.338029      -308.5235
  20   2.0000     -11.336748      -308.4886
  21   2.0000     -11.331883      -308.3562
  22   2.0000      -1.790366       -48.7183
  23   2.0000      -1.695963       -46.1495
  24   2.0000      -1.690856       -46.0105
  25   2.0000      -1.546020       -42.0693
  26   2.0000      -1.485101       -40.4116
  27   2.0000      -1.300276       -35.3823
  28   2.0000      -1.270477       -34.5714
  29   2.0000      -1.233377       -33.5619
  30   2.0000      -1.173932       -31.9443
  31   2.0000      -1.153894       -31.3991
  32   2.0000      -1.149728       -31.2857
  33   2.0000      -1.130573       -30.7644
  34   2.0000      -1.124625       -30.6026
  35   2.0000      -1.083353       -29.4795
  36   2.0000      -1.032823       -28.1045
  37   2.0000      -1.002705       -27.2850
  38   2.0000      -0.968378       -26.3509
  39   2.0000      -0.957387       -26.0518
  40   2.0000      -0.950308       -25.8592
  41   2.0000      -0.945675       -25.7331
  42   2.0000      -0.917427       -24.9645
  43   2.0000      -0.882877       -24.0243
  44   2.0000      -0.880867       -23.9696
  45   2.0000      -0.870334       -23.6830
  46   2.0000      -0.856909       -23.3177
  47   2.0000      -0.853621       -23.2282
  48   2.0000      -0.829260       -22.5653
  49   2.0000      -0.828349       -22.5405
  50   2.0000      -0.792389       -21.5620
  51   2.0000      -0.786912       -21.4130
  52   2.0000      -0.772040       -21.0083
  53   2.0000      -0.770126       -20.9562
  54   2.0000      -0.759291       -20.6614
  55   2.0000      -0.752692       -20.4818
  56   2.0000      -0.748658       -20.3720
  57   2.0000      -0.738780       -20.1032
  58   2.0000      -0.737066       -20.0566
  59   2.0000      -0.734468       -19.9859
  60   2.0000      -0.725242       -19.7348
  61   2.0000      -0.722491       -19.6600
  62   2.0000      -0.721682       -19.6380
  63   2.0000      -0.708107       -19.2686
  64   2.0000      -0.707720       -19.2580
  65   2.0000      -0.703471       -19.1424
  66   2.0000      -0.693622       -18.8744
  67   2.0000      -0.688137       -18.7252
  68   2.0000      -0.674829       -18.3630
  69   2.0000      -0.663902       -18.0657
  70   2.0000      -0.654705       -17.8154
  71   2.0000      -0.628811       -17.1108
  72   2.0000      -0.621984       -16.9250
  73   2.0000      -0.618583       -16.8325
  74   2.0000      -0.616283       -16.7699
  75   2.0000      -0.596342       -16.2273
  76   2.0000      -0.584631       -15.9086
  77   2.0000      -0.479708       -13.0535
  78   2.0000      -0.472181       -12.8487
  79   2.0000      -0.446552       -12.1513
  80   2.0000      -0.430772       -11.7219
  81   0.0000      -0.037254        -1.0137
  82   0.0000      -0.022177        -0.6035
  83   0.0000      -0.016252        -0.4422
  84   0.0000       0.006323         0.1721
  85   0.0000       0.017390         0.4732

MULLIKEN ATOMIC CHARGES
-----------------------
   0 C :   -0.110536
   1 N :    0.051177
   2 C :   -0.142816
   3 C :   -0.121240
   4 C :    0.315832
   5 C :    0.028626
   6 C :   -0.257127
   7 C :   -0.073071
   8 C :   -0.107669
   9 C :   -0.099248
  10 C :   -0.258976
  11 O :   -0.416434
  12 C :    0.316546
  13 C :   -0.102968
  14 C :   -0.176342
  15 C :   -0.021113
  16 C :   -0.057181
  17 C :   -0.226137
  18 C :    0.709074
  19 F :   -0.243102
  20 F :   -0.243817
  21 F :   -0.240879
  22 H :    0.122358
  23 H :    0.129851
  24 H :    0.121317
  25 H :    0.187107
  26 H :    0.136682
  27 H :    0.138841
  28 H :    0.082149
  29 H :    0.114732
  30 H :    0.127389
  31 H :    0.121072
  32 H :    0.134407
  33 H :    0.132412
  34 H :    0.137417
  35 H :    0.145474
  36 H :    0.087025
  37 H :    0.132303
  38 H :    0.132155
  39 H :    0.101696
  40 H :    0.193013
Sum of atomic charges:    1.0000000

LOEWDIN ATOMIC CHARGES
----------------------
   0 C :    0.094616
   1 N :    0.524096
   2 C :    0.039910
   3 C :    0.007403
   4 C :   -0.138071
   5 C :   -0.089724
   6 C :   -0.011841
   7 C :    0.008943
   8 C :    0.004376
   9 C :    0.000552
  10 C :   -0.010138
  11 O :    0.253297
  12 C :   -0.169191
  13 C :   -0.016658
  14 C :    0.039042
  15 C :   -0.088951
  16 C :    0.040912
  17 C :   -0.005046
  18 C :   -0.520175
  19 F :    0.162545
  20 F :    0.162333
  21 F :    0.149758
  22 H :    0.024496
  23 H :    0.023942
  24 H :    0.025952
  25 H :    0.028839
  26 H :    0.029409
  27 H :    0.033593
  28 H :    0.025466
  29 H :    0.041545
  30 H :    0.035909
  31 H :    0.026458
  32 H :    0.029504
  33 H :    0.028378
  34 H :    0.028753
  35 H :    0.026368
  36 H :    0.018588
  37 H :    0.034385
  38 H :    0.035097
  39 H :    0.023043
  40 H :    0.042289

  Mayer bond orders larger than 0.100000
B(  0-C ,  1-N ) :   0.8704 B(  0-C , 22-H ) :   0.9903 B(  0-C , 23-H ) :   0.9862
B(  0-C , 24-H ) :   0.9927 B(  1-N ,  2-C ) :   0.8540 B(  1-N , 25-H ) :   0.9413
B(  1-N , 40-H ) :   0.9540 B(  2-C ,  3-C ) :   0.9411 B(  2-C , 26-H ) :   1.0097
B(  2-C , 27-H ) :   1.0026 B(  3-C ,  4-C ) :   0.8988 B(  3-C , 28-H ) :   1.0535
B(  3-C , 29-H ) :   0.9959 B(  4-C ,  5-C ) :   0.8746 B(  4-C , 11-O ) :   0.8935
B(  4-C , 30-H ) :   1.0440 B(  5-C ,  6-C ) :   1.4064 B(  5-C , 10-C ) :   1.3129
B(  6-C ,  7-C ) :   1.5093 B(  6-C , 31-H ) :   0.9812 B(  7-C ,  8-C ) :   1.4567
B(  7-C , 32-H ) :   0.9662 B(  8-C ,  9-C ) :   1.4772 B(  8-C , 33-H ) :   0.9683
B(  9-C , 10-C ) :   1.4854 B(  9-C , 34-H ) :   0.9651 B( 10-C , 35-H ) :   1.0055
B( 11-O , 12-C ) :   0.9742 B( 12-C , 13-C ) :   1.4099 B( 12-C , 17-C ) :   1.4272
B( 13-C , 14-C ) :   1.4453 B( 13-C , 36-H ) :   0.9917 B( 14-C , 15-C ) :   1.4989
B( 14-C , 37-H ) :   0.9418 B( 15-C , 16-C ) :   1.4184 B( 15-C , 18-C ) :   1.0312
B( 16-C , 17-C ) :   1.5131 B( 16-C , 38-H ) :   0.9498 B( 17-C , 39-H ) :   0.9766
B( 18-C , 19-F ) :   1.0478 B( 18-C , 20-F ) :   1.0465 B( 18-C , 21-F ) :   1.0509

E(0)                                       ...  -1082.677304670
E(0)                                       ...  -1082.677304670
E(CORR)(strong-pairs)                      ...     -3.952931797
E(CORR)(weak-pairs)                        ...     -0.028513418
E(CORR)(corrected)                         ...     -3.981445215
E(TOT)                                     ...  -1086.658749885
E(CCSD(T))                                 ...  -1086.827929749
FINAL SINGLE POINT ENERGY     -1086.827929748755

DIPOLE MOMENT
-------------
                                X             Y             Z
Electronic contribution:     48.81033      -8.64150      -0.89174
Nuclear contribution   :    -57.06415      10.58437       0.85216
                        -----------------------------------------
Total Dipole Moment    :     -8.25382       1.94286      -0.03959
                        -----------------------------------------
Magnitude (a.u.)       :      8.47950
Magnitude (Debye)      :     21.55317

Rotational constants in cm-1:     0.018552     0.004225     0.003865
Rotational constants in MHz :   556.175631   126.652408   115.858285

                             ****ORCA TERMINATED NORMALLY****
TOTAL RUN TIME: 0 days 0 hours 53 minutes 40 seconds 182 msec
