                         Program Version 5.0.3 -  RELEASE  -
|  1> ! DLPNO-CCSD(T) def2-TZVPP def2-TZVPP/C VeryTightSCF
|  2> %maxcore 3400
|  3>
|  4> %pal nprocs 8
|  5> end
|  6>
|  7> *xyz 1 1
|  8>  C       -3.530694        2.781360       -1.850126
|  9>  N       -3.036522        2.535871       -0.472741
| 10>  C       -3.894877        1.606086        0.337481
| 11>  C       -3.140863        1.089628        1.550523
| 12>  C       -1.935456        0.209130        1.199481
| 13>  C       -2.333514       -0.987237        0.358380
| 14>  C       -2.079042       -1.044111       -1.006388
| 15>  C       -2.511811       -2.129619       -1.755750
| 16>  C       -3.202272       -3.164971       -1.147107
| 17>  C       -3.449777       -3.118502        0.217549
| 18>  C       -3.015463       -2.036735        0.965830
| 19>  O       -1.012952        1.071058        0.530276
| 20>  C        0.318342        0.721835        0.439688
| 21>  C        0.818724       -0.505282        0.840044
| 22>  C        2.178851       -0.750035        0.711424
| 23>  C        3.021538        0.212808        0.186431
| 24>  C        2.505843        1.437299       -0.217868
| 25>  C        1.156292        1.694167       -0.088913
| 26>  C        4.489910       -0.074905        0.002607
| 27>  F        5.230825        1.027877        0.164494
| 28>  F        4.929580       -0.991856        0.869905
| 29>  F        4.738967       -0.540299       -1.231218
| 30>  H       -4.537418        3.188701       -1.801578
| 31>  H       -3.539653        1.834894       -2.384477
| 32>  H       -2.868356        3.483771       -2.349063
| 33>  H       -2.944238        3.418603        0.025888
| 34>  H       -4.173557        0.786721       -0.324539
| 35>  H       -4.795244        2.150705        0.616514
| 36>  H       -3.841415        0.498974        2.140629
| 37>  H       -2.810582        1.915250        2.185421
| 38>  H       -1.482000       -0.126482        2.135757
| 39>  H       -1.506556       -0.260769       -1.488863
| 40>  H       -2.295387       -2.170760       -2.815325
| 41>  H       -3.535508       -4.012877       -1.730566
| 42>  H       -3.974897       -3.931004        0.702200
| 43>  H       -3.201426       -2.017723        2.034334
| 44>  H        0.176665       -1.280012        1.232805
| 45>  H        2.577450       -1.705015        1.025342
| 46>  H        3.163041        2.195264       -0.621952
| 47>  H        0.749639        2.653737       -0.381568
| 48>  H       -2.089849        2.121670       -0.474780
| 49> *
| 50>
| 51>
| 52>                          ****END OF INPUT****

CARTESIAN COORDINATES (ANGSTROEM)
---------------------------------
  C     -3.530694    2.781360   -1.850126
  N     -3.036522    2.535871   -0.472741
  C     -3.894877    1.606086    0.337481
  C     -3.140863    1.089628    1.550523
  C     -1.935456    0.209130    1.199481
  C     -2.333514   -0.987237    0.358380
  C     -2.079042   -1.044111   -1.006388
  C     -2.511811   -2.129619   -1.755750
  C     -3.202272   -3.164971   -1.147107
  C     -3.449777   -3.118502    0.217549
  C     -3.015463   -2.036735    0.965830
  O     -1.012952    1.071058    0.530276
  C      0.318342    0.721835    0.439688
  C      0.818724   -0.505282    0.840044
  C      2.178851   -0.750035    0.711424
  C      3.021538    0.212808    0.186431
  C      2.505843    1.437299   -0.217868
  C      1.156292    1.694167   -0.088913
  C      4.489910   -0.074905    0.002607
  F      5.230825    1.027877    0.164494
  F      4.929580   -0.991856    0.869905
  F      4.738967   -0.540299   -1.231218
  H     -4.537418    3.188701   -1.801578
  H     -3.539653    1.834894   -2.384477
  H     -2.868356    3.483771   -2.349063
  H     -2.944238    3.418603    0.025888
  H     -4.173557    0.786721   -0.324539
  H     -4.795244    2.150705    0.616514
  H     -3.841415    0.498974    2.140629
  H     -2.810582    1.915250    2.185421
  H     -1.482000   -0.126482    2.135757
  H     -1.506556   -0.260769   -1.488863
  H     -2.295387   -2.170760   -2.815325
  H     -3.535508   -4.012877   -1.730566
  H     -3.974897   -3.931004    0.702200
  H     -3.201426   -2.017723    2.034334
  H      0.176665   -1.280012    1.232805
  H      2.577450   -1.705015    1.025342
  H      3.163041    2.195264   -0.621952
  H      0.749639    2.653737   -0.381568
  H     -2.089849    2.121670   -0.474780

 Total Charge           Charge          ....    1
 Multiplicity           Mult            ....    1
 Number of Electrons    NEL             ....  162
 Basis Dimension        Dim             ....  948

ORBITAL ENERGIES
----------------

  NO   OCC          E(Eh)            E(eV)
   0   2.0000     -26.405504      -718.5303
   1   2.0000     -26.404657      -718.5072
   2   2.0000     -26.400184      -718.3855
   3   2.0000     -20.732518      -564.1605
   4   2.0000     -15.843170      -431.1146
   5   2.0000     -11.579446      -315.0928
   6   2.0000     -11.445820      -311.4566
   7   2.0000     -11.444056      -311.4086
   8   2.0000     -11.441537      -311.3400
   9   2.0000     -11.426428      -310.9289
  10   2.0000     -11.389752      -309.9309
  11   2.0000     -11.364311      -309.2386
  12   2.0000     -11.355676      -309.0036
  13   2.0000     -11.355127      -308.9887
  14   2.0000     -11.352826      -308.9261
  15   2.0000     -11.351025      -308.8771
  16   2.0000     -11.349945      -308.8477
  17   2.0000     -11.348606      -308.8113
  18   2.0000     -11.347773      -308.7886
  19   2.0000     -11.347730      -308.7874
  20   2.0000     -11.346642      -308.7578
  21   2.0000     -11.342276      -308.6390
  22   2.0000      -1.798798       -48.9478
  23   2.0000      -1.704246       -46.3749
  24   2.0000      -1.699290       -46.2400
  25   2.0000      -1.560850       -42.4729
  26   2.0000      -1.481213       -40.3059
  27   2.0000      -1.289554       -35.0906
  28   2.0000      -1.277316       -34.7575
  29   2.0000      -1.233899       -33.5761
  30   2.0000      -1.170313       -31.8458
  31   2.0000      -1.154238       -31.4084
  32   2.0000      -1.142086       -31.0777
  33   2.0000      -1.135478       -30.8979
  34   2.0000      -1.121106       -30.5069
  35   2.0000      -1.083733       -29.4899
  36   2.0000      -1.039738       -28.2927
  37   2.0000      -1.004188       -27.3253
  38   2.0000      -0.966446       -26.2983
  39   2.0000      -0.961698       -26.1691
  40   2.0000      -0.946207       -25.7476
  41   2.0000      -0.943845       -25.6833
  42   2.0000      -0.916074       -24.9277
  43   2.0000      -0.891272       -24.2527
  44   2.0000      -0.889175       -24.1957
  45   2.0000      -0.880712       -23.9654
  46   2.0000      -0.862721       -23.4758
  47   2.0000      -0.849545       -23.1173
  48   2.0000      -0.823620       -22.4118
  49   2.0000      -0.822197       -22.3731
  50   2.0000      -0.798881       -21.7387
  51   2.0000      -0.787771       -21.4363
  52   2.0000      -0.779191       -21.2029
  53   2.0000      -0.775126       -21.0922
  54   2.0000      -0.761655       -20.7257
  55   2.0000      -0.751620       -20.4526
  56   2.0000      -0.747143       -20.3308
  57   2.0000      -0.741005       -20.1638
  58   2.0000      -0.737076       -20.0569
  59   2.0000      -0.733881       -19.9699
  60   2.0000      -0.732037       -19.9197
  61   2.0000      -0.730663       -19.8823
  62   2.0000      -0.719058       -19.5666
  63   2.0000      -0.715924       -19.4813
  64   2.0000      -0.710157       -19.3244
  65   2.0000      -0.705879       -19.2079
  66   2.0000      -0.698445       -19.0057
  67   2.0000      -0.687143       -18.6981
  68   2.0000      -0.683170       -18.5900
  69   2.0000      -0.658919       -17.9301
  70   2.0000      -0.651927       -17.7398
  71   2.0000      -0.628082       -17.0910
  72   2.0000      -0.619029       -16.8446
  73   2.0000      -0.613877       -16.7045
  74   2.0000      -0.613361       -16.6904
  75   2.0000      -0.605894       -16.4872
  76   2.0000      -0.592614       -16.1259
  77   2.0000      -0.464516       -12.6401
  78   2.0000      -0.456407       -12.4195
  79   2.0000      -0.451841       -12.2952
  80   2.0000      -0.443390       -12.0652
  81   0.0000      -0.038357        -1.0437
  82   0.0000      -0.008155        -0.2219
  83   0.0000      -0.005868        -0.1597
  84   0.0000       0.007280         0.1981
  85   0.0000       0.015017         0.4086

MULLIKEN ATOMIC CHARGES
-----------------------
   0 C :   -0.113297
   1 N :    0.038924
   2 C :   -0.157756
   3 C :   -0.106437
   4 C :    0.286472
   5 C :    0.054650
   6 C :   -0.191701
   7 C :   -0.128942
   8 C :   -0.072002
   9 C :   -0.104477
  10 C :   -0.216909
  11 O :   -0.456739
  12 C :    0.336642
  13 C :   -0.092965
  14 C :   -0.168513
  15 C :   -0.020191
  16 C :   -0.076917
  17 C :   -0.227500
  18 C :    0.709746
  19 F :   -0.242551
  20 F :   -0.240898
  21 F :   -0.238165
  22 H :    0.124034
  23 H :    0.119041
  24 H :    0.127217
  25 H :    0.198423
  26 H :    0.142773
  27 H :    0.141335
  28 H :    0.100526
  29 H :    0.101224
  30 H :    0.131406
  31 H :    0.103720
  32 H :    0.121700
  33 H :    0.125006
  34 H :    0.124723
  35 H :    0.109065
  36 H :    0.100200
  37 H :    0.137362
  38 H :    0.132294
  39 H :    0.085617
  40 H :    0.203861
Sum of atomic charges:    1.0000000

LOEWDIN ATOMIC CHARGES
----------------------
   0 C :    0.090742
   1 N :    0.522663
   2 C :    0.039854
   3 C :    0.007571
   4 C :   -0.116451
   5 C :   -0.089208
   6 C :   -0.017238
   7 C :    0.003265
   8 C :    0.010116
   9 C :    0.012774
  10 C :   -0.002583
  11 O :    0.248861
  12 C :   -0.168454
  13 C :   -0.005699
  14 C :    0.045722
  15 C :   -0.083943
  16 C :    0.042911
  17 C :   -0.015315
  18 C :   -0.521573
  19 F :    0.162595
  20 F :    0.166272
  21 F :    0.153427
  22 H :    0.025228
  23 H :    0.024737
  24 H :    0.022582
  25 H :    0.041483
  26 H :    0.034112
  27 H :    0.028040
  28 H :    0.041073
  29 H :    0.028115
  30 H :    0.037353
  31 H :    0.014715
  32 H :    0.025193
  33 H :    0.026689
  34 H :    0.027588
  35 H :    0.024397
  36 H :    0.024041
  37 H :    0.036384
  38 H :    0.035930
  39 H :    0.015670
  40 H :    0.000362

  Mayer bond orders larger than 0.100000
B(  0-C ,  1-N ) :   0.8718 B(  0-C , 22-H ) :   0.9888 B(  0-C , 23-H ) :   0.9942
B(  0-C , 24-H ) :   0.9869 B(  1-N ,  2-C ) :   0.8551 B(  1-N , 25-H ) :   0.9554
B(  1-N , 40-H ) :   0.9293 B(  2-C ,  3-C ) :   0.9238 B(  2-C , 26-H ) :   1.0056
B(  2-C , 27-H ) :   1.0068 B(  3-C ,  4-C ) :   0.9219 B(  3-C , 28-H ) :   1.0189
B(  3-C , 29-H ) :   1.0203 B(  4-C ,  5-C ) :   0.8383 B(  4-C , 11-O ) :   0.8281
B(  4-C , 30-H ) :   1.0385 B(  5-C ,  6-C ) :   1.2852 B(  5-C , 10-C ) :   1.4123
B(  6-C ,  7-C ) :   1.5119 B(  6-C , 31-H ) :   0.9941 B(  7-C ,  8-C ) :   1.4927
B(  7-C , 32-H ) :   0.9660 B(  8-C ,  9-C ) :   1.4605 B(  8-C , 33-H ) :   0.9650
B(  9-C , 10-C ) :   1.5334 B(  9-C , 34-H ) :   0.9656 B( 10-C , 35-H ) :   0.9731
B( 11-O , 12-C ) :   0.9209 B( 12-C , 13-C ) :   1.4330 B( 12-C , 17-C ) :   1.4177
B( 13-C , 14-C ) :   1.4499 B( 13-C , 36-H ) :   0.9857 B( 14-C , 15-C ) :   1.4909
B( 14-C , 37-H ) :   0.9413 B( 15-C , 16-C ) :   1.4360 B( 15-C , 18-C ) :   1.0281
B( 16-C , 17-C ) :   1.5266 B( 16-C , 38-H ) :   0.9460 B( 17-C , 39-H ) :   0.9677
B( 18-C , 19-F ) :   1.0468 B( 18-C , 20-F ) :   1.0494 B( 18-C , 21-F ) :   1.0533

E(0)                                       ...  -1082.679007112
E(0)                                       ...  -1082.679007112
E(CORR)(strong-pairs)                      ...     -3.952985579
E(CORR)(weak-pairs)                        ...     -0.028306833
E(CORR)(corrected)                         ...     -3.981292412
E(TOT)                                     ...  -1086.660299523
E(CCSD(T))                                 ...  -1086.829470979
FINAL SINGLE POINT ENERGY     -1086.829470979294

DIPOLE MOMENT
-------------
                                X             Y             Z
Electronic contribution:     46.17533      -5.57865       1.80370
Nuclear contribution   :    -52.60680       8.54790      -2.17666
                        -----------------------------------------
Total Dipole Moment    :     -6.43147       2.96925      -0.37296
                        -----------------------------------------
Magnitude (a.u.)       :      7.09361
Magnitude (Debye)      :     18.03053

Rotational constants in cm-1:     0.014988     0.004683     0.004056
Rotational constants in MHz :   449.317965   140.395833   121.605989

                             ****ORCA TERMINATED NORMALLY****
TOTAL RUN TIME: 0 days 1 hours 1 minutes 28 seconds 756 msec
