                         Program Version 5.0.3 -  RELEASE  -
|  1> ! DLPNO-CCSD(T) def2-TZVPP def2-TZVPP/C VeryTightSCF
|  2> %maxcore 3400
|  3>
|  4> %pal nprocs 8
|  5> end
|  6>
|  7> *xyz 1 1
|  8>  C       -0.960091        3.589433       -0.126561
|  9>  N       -2.000238        3.086348        0.812229
| 10>  C       -3.237150        2.528717        0.161233
| 11>  C       -3.013390        1.154654       -0.452462
| 12>  C       -2.673894        0.076354        0.577841
| 13>  C       -2.599105       -1.344943        0.060765
| 14>  C       -2.134853       -2.333894        0.923781
| 15>  C       -2.060778       -3.650794        0.506334
| 16>  C       -2.459747       -3.998591       -0.776756
| 17>  C       -2.933519       -3.022443       -1.636391
| 18>  C       -3.002160       -1.699830       -1.220339
| 19>  O       -1.507545        0.457148        1.340718
| 20>  C       -0.228813        0.403757        0.832917
| 21>  C        0.748153        0.861210        1.711210
| 22>  C        2.067532        0.928904        1.305998
| 23>  C        2.419205        0.535308        0.023253
| 24>  C        1.446498        0.061587       -0.840921
| 25>  C        0.118326       -0.008998       -0.447365
| 26>  C        3.845142        0.659848       -0.449045
| 27>  F        4.184932       -0.341246       -1.266053
| 28>  F        4.021721        1.805670       -1.130100
| 29>  F        4.707141        0.668324        0.570974
| 30>  H       -0.108139        3.938587        0.450518
| 31>  H       -1.379094        4.402552       -0.713813
| 32>  H       -0.642215        2.776748       -0.772755
| 33>  H       -2.267360        3.835693        1.445389
| 34>  H       -3.558990        3.251420       -0.587051
| 35>  H       -3.997348        2.480151        0.941293
| 36>  H       -2.268234        1.198714       -1.247755
| 37>  H       -3.955058        0.885409       -0.931703
| 38>  H       -3.449751        0.103892        1.348147
| 39>  H       -1.820065       -2.069507        1.925882
| 40>  H       -1.693446       -4.409174        1.185042
| 41>  H       -2.403522       -5.028719       -1.102690
| 42>  H       -3.251102       -3.285914       -2.636648
| 43>  H       -3.371210       -0.958082       -1.917135
| 44>  H        0.464784        1.136344        2.719587
| 45>  H        2.825590        1.277060        1.994149
| 46>  H        1.720923       -0.267826       -1.834358
| 47>  H       -0.612563       -0.412330       -1.130269
| 48>  H       -1.613322        2.317806        1.380188
| 49> *
| 50>
| 51>
| 52>                          ****END OF INPUT****

CARTESIAN COORDINATES (ANGSTROEM)
---------------------------------
  C     -0.960091    3.589433   -0.126561
  N     -2.000238    3.086348    0.812229
  C     -3.237150    2.528717    0.161233
  C     -3.013390    1.154654   -0.452462
  C     -2.673894    0.076354    0.577841
  C     -2.599105   -1.344943    0.060765
  C     -2.134853   -2.333894    0.923781
  C     -2.060778   -3.650794    0.506334
  C     -2.459747   -3.998591   -0.776756
  C     -2.933519   -3.022443   -1.636391
  C     -3.002160   -1.699830   -1.220339
  O     -1.507545    0.457148    1.340718
  C     -0.228813    0.403757    0.832917
  C      0.748153    0.861210    1.711210
  C      2.067532    0.928904    1.305998
  C      2.419205    0.535308    0.023253
  C      1.446498    0.061587   -0.840921
  C      0.118326   -0.008998   -0.447365
  C      3.845142    0.659848   -0.449045
  F      4.184932   -0.341246   -1.266053
  F      4.021721    1.805670   -1.130100
  F      4.707141    0.668324    0.570974
  H     -0.108139    3.938587    0.450518
  H     -1.379094    4.402552   -0.713813
  H     -0.642215    2.776748   -0.772755
  H     -2.267360    3.835693    1.445389
  H     -3.558990    3.251420   -0.587051
  H     -3.997348    2.480151    0.941293
  H     -2.268234    1.198714   -1.247755
  H     -3.955058    0.885409   -0.931703
  H     -3.449751    0.103892    1.348147
  H     -1.820065   -2.069507    1.925882
  H     -1.693446   -4.409174    1.185042
  H     -2.403522   -5.028719   -1.102690
  H     -3.251102   -3.285914   -2.636648
  H     -3.371210   -0.958082   -1.917135
  H      0.464784    1.136344    2.719587
  H      2.825590    1.277060    1.994149
  H      1.720923   -0.267826   -1.834358
  H     -0.612563   -0.412330   -1.130269
  H     -1.613322    2.317806    1.380188

 Total Charge           Charge          ....    1
 Multiplicity           Mult            ....    1
 Number of Electrons    NEL             ....  162
 Basis Dimension        Dim             ....  948

ORBITAL ENERGIES
----------------

  NO   OCC          E(Eh)            E(eV)
   0   2.0000     -26.416819      -718.8382
   1   2.0000     -26.415394      -718.7994
   2   2.0000     -26.412224      -718.7132
   3   2.0000     -20.730959      -564.1181
   4   2.0000     -15.847252      -431.2257
   5   2.0000     -11.590946      -315.4057
   6   2.0000     -11.454394      -311.6899
   7   2.0000     -11.442881      -311.3766
   8   2.0000     -11.441687      -311.3441
   9   2.0000     -11.436506      -311.2032
  10   2.0000     -11.392495      -310.0056
  11   2.0000     -11.368093      -309.3415
  12   2.0000     -11.367548      -309.3267
  13   2.0000     -11.362200      -309.1812
  14   2.0000     -11.358408      -309.0780
  15   2.0000     -11.357642      -309.0572
  16   2.0000     -11.355399      -308.9961
  17   2.0000     -11.343555      -308.6738
  18   2.0000     -11.337952      -308.5214
  19   2.0000     -11.335409      -308.4522
  20   2.0000     -11.333945      -308.4123
  21   2.0000     -11.331875      -308.3560
  22   2.0000      -1.810202       -49.2581
  23   2.0000      -1.715690       -46.6863
  24   2.0000      -1.710772       -46.5525
  25   2.0000      -1.557325       -42.3770
  26   2.0000      -1.482767       -40.3482
  27   2.0000      -1.294555       -35.2266
  28   2.0000      -1.272696       -34.6318
  29   2.0000      -1.234088       -33.5812
  30   2.0000      -1.177263       -32.0350
  31   2.0000      -1.159096       -31.5406
  32   2.0000      -1.150203       -31.2986
  33   2.0000      -1.127141       -30.6711
  34   2.0000      -1.122981       -30.5579
  35   2.0000      -1.078101       -29.3366
  36   2.0000      -1.049034       -28.5457
  37   2.0000      -1.006516       -27.3887
  38   2.0000      -0.976331       -26.5673
  39   2.0000      -0.961844       -26.1731
  40   2.0000      -0.944369       -25.6976
  41   2.0000      -0.932364       -25.3709
  42   2.0000      -0.914147       -24.8752
  43   2.0000      -0.902834       -24.5674
  44   2.0000      -0.901852       -24.5406
  45   2.0000      -0.891586       -24.2613
  46   2.0000      -0.881535       -23.9878
  47   2.0000      -0.838817       -22.8254
  48   2.0000      -0.828252       -22.5379
  49   2.0000      -0.815623       -22.1942
  50   2.0000      -0.803594       -21.8669
  51   2.0000      -0.790145       -21.5009
  52   2.0000      -0.787136       -21.4191
  53   2.0000      -0.768307       -20.9067
  54   2.0000      -0.765919       -20.8417
  55   2.0000      -0.759406       -20.6645
  56   2.0000      -0.747652       -20.3446
  57   2.0000      -0.743335       -20.2272
  58   2.0000      -0.742615       -20.2076
  59   2.0000      -0.741960       -20.1898
  60   2.0000      -0.738424       -20.0935
  61   2.0000      -0.727480       -19.7957
  62   2.0000      -0.726596       -19.7717
  63   2.0000      -0.721835       -19.6421
  64   2.0000      -0.717525       -19.5248
  65   2.0000      -0.711009       -19.3475
  66   2.0000      -0.702502       -19.1161
  67   2.0000      -0.688448       -18.7336
  68   2.0000      -0.679516       -18.4906
  69   2.0000      -0.660674       -17.9778
  70   2.0000      -0.649752       -17.6807
  71   2.0000      -0.639275       -17.3956
  72   2.0000      -0.625508       -17.0209
  73   2.0000      -0.614170       -16.7124
  74   2.0000      -0.603481       -16.4216
  75   2.0000      -0.594277       -16.1711
  76   2.0000      -0.590749       -16.0751
  77   2.0000      -0.473705       -12.8902
  78   2.0000      -0.456774       -12.4295
  79   2.0000      -0.445253       -12.1159
  80   2.0000      -0.440606       -11.9895
  81   0.0000      -0.038630        -1.0512
  82   0.0000      -0.011420        -0.3108
  83   0.0000      -0.006470        -0.1761
  84   0.0000       0.002229         0.0607
  85   0.0000       0.013664         0.3718

MULLIKEN ATOMIC CHARGES
-----------------------
   0 C :   -0.126737
   1 N :    0.031698
   2 C :   -0.116173
   3 C :   -0.204294
   4 C :    0.364605
   5 C :    0.045927
   6 C :   -0.203743
   7 C :   -0.108933
   8 C :   -0.080188
   9 C :   -0.095041
  10 C :   -0.206932
  11 O :   -0.425974
  12 C :    0.243277
  13 C :   -0.235537
  14 C :   -0.077476
  15 C :   -0.005299
  16 C :   -0.184332
  17 C :   -0.090589
  18 C :    0.710220
  19 F :   -0.237959
  20 F :   -0.242741
  21 F :   -0.238498
  22 H :    0.132648
  23 H :    0.127215
  24 H :    0.121423
  25 H :    0.207812
  26 H :    0.138149
  27 H :    0.138705
  28 H :    0.095322
  29 H :    0.118977
  30 H :    0.108505
  31 H :    0.112736
  32 H :    0.119857
  33 H :    0.121697
  34 H :    0.118893
  35 H :    0.092455
  36 H :    0.131070
  37 H :    0.144881
  38 H :    0.136687
  39 H :    0.110224
  40 H :    0.207463
Sum of atomic charges:    1.0000000

LOEWDIN ATOMIC CHARGES
----------------------
   0 C :    0.095501
   1 N :    0.526503
   2 C :    0.042679
   3 C :   -0.001270
   4 C :   -0.109450
   5 C :   -0.085849
   6 C :    0.010875
   7 C :    0.010708
   8 C :    0.013038
   9 C :    0.003948
  10 C :   -0.012798
  11 O :    0.241307
  12 C :   -0.188557
  13 C :   -0.020373
  14 C :    0.038975
  15 C :   -0.086757
  16 C :    0.041465
  17 C :   -0.012250
  18 C :   -0.522458
  19 F :    0.167935
  20 F :    0.147681
  21 F :    0.169392
  22 H :    0.025297
  23 H :    0.021910
  24 H :    0.022963
  25 H :    0.040083
  26 H :    0.031061
  27 H :    0.031428
  28 H :    0.023034
  29 H :    0.042836
  30 H :    0.038734
  31 H :    0.026384
  32 H :    0.026344
  33 H :    0.026354
  34 H :    0.024851
  35 H :    0.016081
  36 H :    0.024452
  37 H :    0.036504
  38 H :    0.037926
  39 H :    0.021698
  40 H :    0.011815

  Mayer bond orders larger than 0.100000
B(  0-C ,  1-N ) :   0.8685 B(  0-C , 22-H ) :   0.9865 B(  0-C , 23-H ) :   0.9954
B(  0-C , 24-H ) :   0.9855 B(  1-N ,  2-C ) :   0.8399 B(  1-N , 25-H ) :   0.9559
B(  1-N , 40-H ) :   0.9283 B(  2-C ,  3-C ) :   0.9261 B(  2-C , 26-H ) :   1.0294
B(  2-C , 27-H ) :   1.0172 B(  3-C ,  4-C ) :   0.8738 B(  3-C , 28-H ) :   1.0255
B(  3-C , 29-H ) :   1.0151 B(  4-C ,  5-C ) :   0.9128 B(  4-C , 11-O ) :   0.8163
B(  4-C , 30-H ) :   1.0013 B(  5-C ,  6-C ) :   1.4178 B(  5-C , 10-C ) :   1.3436
B(  6-C ,  7-C ) :   1.5389 B(  6-C , 31-H ) :   0.9703 B(  7-C ,  8-C ) :   1.4558
B(  7-C , 32-H ) :   0.9666 B(  8-C ,  9-C ) :   1.4925 B(  8-C , 33-H ) :   0.9654
B(  9-C , 10-C ) :   1.4984 B(  9-C , 34-H ) :   0.9668 B( 10-C , 35-H ) :   0.9914
B( 11-O , 12-C ) :   0.9232 B( 12-C , 13-C ) :   1.4241 B( 12-C , 17-C ) :   1.3885
B( 13-C , 14-C ) :   1.4906 B( 13-C , 36-H ) :   0.9727 B( 14-C , 15-C ) :   1.4328
B( 14-C , 37-H ) :   0.9482 B( 15-C , 16-C ) :   1.4934 B( 15-C , 18-C ) :   1.0286
B( 16-C , 17-C ) :   1.4484 B( 16-C , 38-H ) :   0.9457 B( 17-C , 39-H ) :   1.0013
B( 18-C , 19-F ) :   1.0540 B( 18-C , 20-F ) :   1.0443 B( 18-C , 21-F ) :   1.0520

E(0)                                       ...  -1082.665779359
E(0)                                       ...  -1082.665779359
E(CORR)(strong-pairs)                      ...     -3.957336433
E(CORR)(weak-pairs)                        ...     -0.028443207
E(CORR)(corrected)                         ...     -3.985779640
E(TOT)                                     ...  -1086.651558999
E(CCSD(T))                                 ...  -1086.821537402
FINAL SINGLE POINT ENERGY     -1086.821537401906

DIPOLE MOMENT
-------------
                                X             Y             Z
Electronic contribution:     36.22454      -3.10209      -1.42940
Nuclear contribution   :    -40.73471       6.62915       2.17446
                        -----------------------------------------
Total Dipole Moment    :     -4.51017       3.52706       0.74506
                        -----------------------------------------
Magnitude (a.u.)       :      5.77381
Magnitude (Debye)      :     14.67587

Rotational constants in cm-1:     0.012341     0.005986     0.004619
Rotational constants in MHz :   369.970883   179.470607   138.474251

                             ****ORCA TERMINATED NORMALLY****
TOTAL RUN TIME: 0 days 1 hours 3 minutes 34 seconds 501 msec
