                         Program Version 5.0.2 -  RELEASE  -
|  1> # GGG-H_tt_000 (old 001)
|  2> ! wB97X-D3BJ Opt Freq def2-TZVPP def2/J RIJCOSX VeryTightSCF
|  3> ! PAL8 defgrid3 VeryTightOpt
|  4>
|  5> %maxcore 4096
|  6>
|  7> %geom
|  8>   MaxIter 300
|  9>   # MaxStep 0.1
| 10>   Calc_Hess true
| 11>   Recalc_Hess 10
| 12> end
| 13>
| 14> %chelpg
| 15>   grid 0.1
| 16>   rmax 3.0
| 17> end
| 18>
| 19> * xyz 1 1
| 20>  N   -0.062596   +1.069860   -2.545680
| 21>  H   -0.103875   +0.071484   -2.353411
| 22>  C   +0.643193   +1.480458   -3.731724
| 23>  C   +1.955515   +0.727392   -3.880713
| 24>  H   +0.056750   +1.336083   -4.659401
| 25>  H   +0.841269   +2.565181   -3.645014
| 26>  O   +2.346115   -0.148313   -3.106380
| 27>  C   -0.295692   +1.951980   -1.510093
| 28>  C   -0.705011   +1.276222   -0.179308
| 29>  O   -0.198879   +3.160407   -1.619022
| 30>  N   +0.000000   +0.000000   +0.000000
| 31>  H   -1.788562   +1.081232   -0.158903
| 32>  H   -0.451321   +1.983829   +0.624079
| 33>  H   -0.521117   -0.874120   +0.062019
| 34>  C   +1.348329   +0.000000   +0.000000
| 35>  C   +2.096697   -1.346866   -0.098004
| 36>  O   +2.032422   +1.028217   +0.000000
| 37>  H   +1.582189   -2.100042   -0.712283
| 38>  H   +2.307944   -1.761092   +0.901280
| 39>  O   +2.622601   +1.094725   -4.968783
| 40>  H   +3.447246   +0.567361   -5.041426
| 41>  N   +3.385310   -0.952532   -0.748101
| 42>  H   +4.171656   -1.591622   -0.573687
| 43>  H   +3.219596   -0.799873   -1.778234
| 44>  H   +3.555548   +0.017379   -0.367481
| 45> *
| 46>
| 47>                          ****END OF INPUT****
 Total Charge           Charge          ....    1
 Multiplicity           Mult            ....    1
 Number of Electrons    NEL             ....  100
Dispersion correction           -0.044407459
FINAL SINGLE POINT ENERGY      -701.345411800285
Dispersion correction            ... done
Dispersion correction in the Hessian             ... done   (      0.6 sec)
Dispersion correction           -0.044623368
FINAL SINGLE POINT ENERGY      -701.348959489465
Dispersion correction            ... done
Dispersion correction           -0.044551831
FINAL SINGLE POINT ENERGY      -701.349036525088
FINAL SINGLE POINT ENERGY      -701.349055517200
FINAL SINGLE POINT ENERGY      -701.349059938368
FINAL SINGLE POINT ENERGY      -701.349061775282
Dispersion correction           -0.044477904
FINAL SINGLE POINT ENERGY      -701.349061568853
Dispersion correction            ... done
Dispersion correction           -0.044479163
FINAL SINGLE POINT ENERGY      -701.349061533366
Dispersion correction            ... done
                    ***********************HURRAY********************

CARTESIAN COORDINATES (ANGSTROEM)
---------------------------------
  N     -0.071212    1.057892   -2.553825
  H     -0.114302    0.073341   -2.365797
  C      0.621229    1.468760   -3.741238
  C      1.949009    0.757004   -3.887904
  H      0.043438    1.288413   -4.652103
  H      0.799856    2.544612   -3.684209
  O      2.369707   -0.098650   -3.128340
  C     -0.297255    1.932020   -1.523370
  C     -0.688837    1.274087   -0.192253
  O     -0.211617    3.129461   -1.632577
  N      0.018625    0.012464    0.009440
  H     -1.760910    1.079768   -0.174046
  H     -0.445189    1.986659    0.593017
  H     -0.487881   -0.855671    0.043746
  C      1.359447    0.019539    0.004737
  C      2.089792   -1.326816   -0.075143
  O      2.037021    1.031907    0.003991
  H      1.569842   -2.066855   -0.680008
  H      2.279109   -1.726433    0.921061
  O      2.600487    1.151386   -4.967438
  H      3.430253    0.661980   -5.049775
  N      3.389038   -0.986431   -0.721507
  H      4.110846   -1.688974   -0.582105
  H      3.229441   -0.807515   -1.729197
  H      3.665388   -0.074600   -0.325427

 Multiplicity           Mult            ....    1
 Number of Electrons    NEL             ....  100
 Basis Dimension        Dim             ....  571

ORBITAL ENERGIES
----------------

  NO   OCC          E(Eh)            E(eV)
   0   2.0000     -19.412230      -528.2336
   1   2.0000     -19.366908      -527.0003
   2   2.0000     -19.353794      -526.6435
   3   2.0000     -19.301282      -525.2146
   4   2.0000     -14.697925      -399.9509
   5   2.0000     -14.606997      -397.4766
   6   2.0000     -14.565096      -396.3364
   7   2.0000     -10.567114      -287.5458
   8   2.0000     -10.551422      -287.1188
   9   2.0000     -10.517679      -286.2006
  10   2.0000     -10.500927      -285.7447
  11   2.0000     -10.453330      -284.4496
  12   2.0000     -10.452823      -284.4358
  13   2.0000      -1.402541       -38.1651
  14   2.0000      -1.360694       -37.0264
  15   2.0000      -1.310250       -35.6537
  16   2.0000      -1.304146       -35.4876
  17   2.0000      -1.297139       -35.2969
  18   2.0000      -1.230359       -33.4798
  19   2.0000      -1.191490       -32.4221
  20   2.0000      -1.064360       -28.9627
  21   2.0000      -1.026480       -27.9320
  22   2.0000      -0.987853       -26.8809
  23   2.0000      -0.897277       -24.4162
  24   2.0000      -0.893753       -24.3203
  25   2.0000      -0.883914       -24.0525
  26   2.0000      -0.871158       -23.7054
  27   2.0000      -0.838914       -22.8280
  28   2.0000      -0.810221       -22.0472
  29   2.0000      -0.788411       -21.4537
  30   2.0000      -0.777925       -21.1684
  31   2.0000      -0.769657       -20.9434
  32   2.0000      -0.755325       -20.5535
  33   2.0000      -0.737118       -20.0580
  34   2.0000      -0.736577       -20.0433
  35   2.0000      -0.723104       -19.6767
  36   2.0000      -0.701251       -19.0820
  37   2.0000      -0.688796       -18.7431
  38   2.0000      -0.676624       -18.4119
  39   2.0000      -0.669814       -18.2266
  40   2.0000      -0.654640       -17.8137
  41   2.0000      -0.640934       -17.4407
  42   2.0000      -0.631203       -17.1759
  43   2.0000      -0.607080       -16.5195
  44   2.0000      -0.590442       -16.0668
  45   2.0000      -0.556864       -15.1530
  46   2.0000      -0.547864       -14.9081
  47   2.0000      -0.541059       -14.7230
  48   2.0000      -0.494039       -13.4435
  49   2.0000      -0.485149       -13.2016
  50   0.0000      -0.078533        -2.1370
  51   0.0000      -0.064463        -1.7541
  52   0.0000      -0.055615        -1.5134
  53   0.0000      -0.043170        -1.1747
  54   0.0000      -0.017568        -0.4780

MULLIKEN ATOMIC CHARGES
-----------------------
   0 N :   -0.185484
   1 H :    0.141825
   2 C :   -0.070182
   3 C :    0.378085
   4 H :    0.152580
   5 H :    0.148075
   6 O :   -0.445576
   7 C :    0.243763
   8 C :   -0.074023
   9 O :   -0.308077
  10 N :   -0.227298
  11 H :    0.139285
  12 H :    0.152404
  13 H :    0.197536
  14 C :    0.251565
  15 C :   -0.168224
  16 O :   -0.351196
  17 H :    0.159443
  18 H :    0.180223
  19 O :   -0.216179
  20 H :    0.238971
  21 N :   -0.053285
  22 H :    0.231900
  23 H :    0.249171
  24 H :    0.234697
Sum of atomic charges:    1.0000000

LOEWDIN ATOMIC CHARGES
----------------------
   0 N :    0.317738
   1 H :   -0.043511
   2 C :   -0.034700
   3 C :   -0.393853
   4 H :    0.042058
   5 H :    0.052315
   6 O :    0.079250
   7 C :   -0.389683
   8 C :   -0.010895
   9 O :    0.128507
  10 N :    0.337678
  11 H :    0.035964
  12 H :    0.043707
  13 H :   -0.019217
  14 C :   -0.405005
  15 C :    0.032976
  16 O :    0.125584
  17 H :    0.031878
  18 H :    0.039491
  19 O :    0.415521
  20 H :   -0.073528
  21 N :    0.607608
  22 H :    0.042384
  23 H :   -0.001816
  24 H :    0.039548

  Mayer bond orders larger than 0.100000
B(  0-N ,  1-H ) :   0.9689 B(  0-N ,  2-C ) :   0.9285 B(  0-N ,  7-C ) :   1.1722
B(  2-C ,  3-C ) :   0.9569 B(  2-C ,  4-H ) :   0.9646 B(  2-C ,  5-H ) :   0.9642
B(  3-C ,  6-O ) :   1.8248 B(  3-C , 19-O ) :   1.3365 B(  6-O , 23-H ) :   0.1134
B(  7-C ,  8-C ) :   0.9192 B(  7-C ,  9-O ) :   2.1206 B(  8-C , 10-N ) :   0.8750
B(  8-C , 11-H ) :   0.9815 B(  8-C , 12-H ) :   0.9860 B( 10-N , 13-H ) :   0.9601
B( 10-N , 14-C ) :   1.2949 B( 14-C , 15-C ) :   0.9228 B( 14-C , 16-O ) :   1.9466
B( 15-C , 17-H ) :   0.9919 B( 15-C , 18-H ) :   0.9790 B( 15-C , 21-N ) :   0.8968
B( 19-O , 20-H ) :   0.9483 B( 21-N , 22-H ) :   0.9387 B( 21-N , 23-H ) :   0.8814
B( 21-N , 24-H ) :   0.8915

Dispersion correction           -0.044479537
FINAL SINGLE POINT ENERGY      -701.349061573504

DIPOLE MOMENT
-------------
                                X             Y             Z
Electronic contribution:      0.19717       3.41739      -2.26339
Nuclear contribution   :      1.58205      -7.55217       3.04652
                        -----------------------------------------
Total Dipole Moment    :      1.77922      -4.13478       0.78313
                        -----------------------------------------
Magnitude (a.u.)       :      4.56895
Magnitude (Debye)      :     11.61335

Dispersion correction in the Hessian             ... done   (      0.5 sec)

VIBRATIONAL FREQUENCIES
-----------------------

Scaling factor for frequencies =  1.000000000  (already applied!)

   0:         0.00 cm**-1
   1:         0.00 cm**-1
   2:         0.00 cm**-1
   3:         0.00 cm**-1
   4:         0.00 cm**-1
   5:         0.00 cm**-1
   6:        53.76 cm**-1
   7:        63.58 cm**-1
   8:        66.45 cm**-1
   9:        88.27 cm**-1
  10:       110.52 cm**-1
  11:       120.47 cm**-1
  12:       186.23 cm**-1
  13:       222.95 cm**-1
  14:       242.16 cm**-1
  15:       259.95 cm**-1
  16:       278.18 cm**-1
  17:       309.73 cm**-1
  18:       359.95 cm**-1
  19:       409.54 cm**-1
  20:       438.62 cm**-1
  21:       464.04 cm**-1
  22:       481.60 cm**-1
  23:       520.72 cm**-1
  24:       524.70 cm**-1
  25:       613.65 cm**-1
  26:       631.07 cm**-1
  27:       646.11 cm**-1
  28:       671.32 cm**-1
  29:       703.61 cm**-1
  30:       722.66 cm**-1
  31:       879.30 cm**-1
  32:       888.99 cm**-1
  33:       916.38 cm**-1
  34:       931.57 cm**-1
  35:      1010.64 cm**-1
  36:      1043.43 cm**-1
  37:      1057.60 cm**-1
  38:      1082.71 cm**-1
  39:      1129.65 cm**-1
  40:      1136.98 cm**-1
  41:      1168.81 cm**-1
  42:      1208.97 cm**-1
  43:      1258.26 cm**-1
  44:      1271.36 cm**-1
  45:      1273.65 cm**-1
  46:      1314.03 cm**-1
  47:      1342.83 cm**-1
  48:      1345.89 cm**-1
  49:      1365.17 cm**-1
  50:      1413.73 cm**-1
  51:      1464.14 cm**-1
  52:      1470.39 cm**-1
  53:      1476.71 cm**-1
  54:      1493.74 cm**-1
  55:      1512.81 cm**-1
  56:      1567.71 cm**-1
  57:      1581.91 cm**-1
  58:      1611.20 cm**-1
  59:      1685.35 cm**-1
  60:      1781.49 cm**-1
  61:      1792.44 cm**-1
  62:      1837.26 cm**-1
  63:      3087.33 cm**-1
  64:      3122.02 cm**-1
  65:      3125.09 cm**-1
  66:      3140.83 cm**-1
  67:      3185.96 cm**-1
  68:      3188.07 cm**-1
  69:      3243.08 cm**-1
  70:      3341.24 cm**-1
  71:      3561.00 cm**-1
  72:      3675.48 cm**-1
  73:      3701.85 cm**-1
  74:      3803.74 cm**-1

IR SPECTRUM
-----------

 Mode   freq       eps      Int      T**2         TX        TY        TZ
       cm**-1   L/(mol*cm) km/mol    a.u.
----------------------------------------------------------------------------
  6:     53.76   0.000723    3.65  0.004195  (-0.031301  0.012678 -0.055264)
  7:     63.58   0.000543    2.75  0.002667  ( 0.038464  0.027728 -0.020459)
  8:     66.45   0.001462    7.39  0.006868  ( 0.075191 -0.003411  0.034676)
  9:     88.27   0.001401    7.08  0.004954  (-0.064217  0.020648  0.020091)
 10:    110.52   0.003566   18.02  0.010069  ( 0.009759 -0.061482  0.078699)
 11:    120.47   0.000924    4.67  0.002393  ( 0.038394 -0.021966 -0.020888)
 12:    186.23   0.010399   52.55  0.017424  (-0.018402  0.008453 -0.130439)
 13:    222.95   0.000468    2.36  0.000655  (-0.011706 -0.014338  0.017671)
 14:    242.16   0.002070   10.46  0.002667  ( 0.015089 -0.042800 -0.024646)
 15:    259.95   0.003381   17.09  0.004059  (-0.052024 -0.007661 -0.035964)
 16:    278.18   0.002368   11.97  0.002657  (-0.045254  0.024413  0.003553)
 17:    309.73   0.001142    5.77  0.001150  ( 0.023165 -0.017093  0.017928)
 18:    359.95   0.004135   20.90  0.003585  (-0.041278  0.043169  0.004209)
 19:    409.54   0.012612   63.73  0.009610  ( 0.084350 -0.047393 -0.015780)
 20:    438.62   0.011900   60.14  0.008466  (-0.080608  0.002539 -0.044298)
 21:    464.04   0.020615  104.18  0.013864  (-0.032646 -0.028373  0.109512)
 22:    481.60   0.010585   53.49  0.006859  ( 0.041793  0.018780  0.068989)
 23:    520.72   0.005641   28.51  0.003381  (-0.043433 -0.036995  0.011208)
 24:    524.70   0.004256   21.51  0.002531  ( 0.002812  0.016579  0.047417)
 25:    613.65   0.003331   16.83  0.001694  (-0.037565 -0.015032  0.007536)
 26:    631.07   0.003045   15.39  0.001506  ( 0.017176  0.016533  0.030616)
 27:    646.11   0.004935   24.94  0.002384  ( 0.037261 -0.021082 -0.023472)
 28:    671.32   0.017411   87.99  0.008094  ( 0.043849  0.061252  0.049184)
 29:    703.61   0.000464    2.35  0.000206  (-0.003123 -0.001816 -0.013886)
 30:    722.66   0.000245    1.24  0.000106  (-0.006394  0.007991  0.001044)
 31:    879.30   0.004330   21.88  0.001537  ( 0.022578 -0.023224 -0.022080)
 32:    888.99   0.002491   12.59  0.000874  (-0.002182 -0.004147  0.029197)
 33:    916.38   0.004268   21.57  0.001453  (-0.002538  0.029204 -0.024375)
 34:    931.57   0.005283   26.70  0.001770  ( 0.004102  0.000593 -0.041865)
 35:   1010.64   0.001336    6.75  0.000412  ( 0.017412 -0.007693 -0.007075)
 36:   1043.43   0.001379    6.97  0.000412  ( 0.013068 -0.009948  0.011947)
 37:   1057.60   0.001744    8.81  0.000515  ( 0.006890 -0.000477  0.021606)
 38:   1082.71   0.003571   18.05  0.001029  (-0.006134  0.031489 -0.000332)
 39:   1129.65   0.000974    4.92  0.000269  (-0.004077 -0.010363 -0.012044)
 40:   1136.98   0.004905   24.79  0.001346  ( 0.012198 -0.030818  0.015737)
 41:   1168.81   0.005205   26.30  0.001390  (-0.025880 -0.009277  0.025175)
 42:   1208.97   0.040903  206.71  0.010558  ( 0.061585  0.010646 -0.081559)
 43:   1258.26   0.002465   12.46  0.000611  ( 0.001914 -0.017971 -0.016875)
 44:   1271.36   0.008843   44.69  0.002171  ( 0.012800 -0.017246  0.041344)
 45:   1273.65   0.004335   21.91  0.001062  (-0.018204  0.019858  0.018341)
 46:   1314.03   0.012816   64.76  0.003043  (-0.033330  0.025301  0.035950)
 47:   1342.83   0.000646    3.26  0.000150  ( 0.007917  0.003048  0.008840)
 48:   1345.89   0.003604   18.22  0.000836  (-0.013025 -0.006391  0.025005)
 49:   1365.17   0.003765   19.03  0.000861  (-0.024407  0.012130  0.010850)
 50:   1413.73   0.000552    2.79  0.000122  (-0.002738 -0.010690  0.000345)
 51:   1464.14   0.019972  100.93  0.004257  (-0.043685  0.021072  0.043639)
 52:   1470.39   0.018855   95.29  0.004002  ( 0.011935  0.023365 -0.057562)
 53:   1476.71   0.003040   15.36  0.000643  ( 0.022307  0.010449  0.005979)
 54:   1493.74   0.007212   36.45  0.001507  (-0.027129 -0.027001  0.006452)
 55:   1512.81   0.044287  223.81  0.009136  ( 0.095575 -0.000440 -0.000856)
 56:   1567.71   0.025759  130.17  0.005127  (-0.012248 -0.028783 -0.064412)
 57:   1581.91   0.042141  212.96  0.008313  (-0.074371  0.045414  0.026826)
 58:   1611.20   0.003502   17.70  0.000678  ( 0.005864 -0.025376 -0.000092)
 59:   1685.35   0.026820  135.54  0.004966  ( 0.033852 -0.049330  0.037237)
 60:   1781.49   0.090860  459.17  0.015916  (-0.012518 -0.085522  0.091897)
 61:   1792.44   0.038002  192.05  0.006616  (-0.069264  0.013850 -0.040335)
 62:   1837.26   0.053338  269.55  0.009060  ( 0.004100  0.093122  0.019261)
 63:   3087.33   0.003357   16.97  0.000339  (-0.009968  0.007827  0.013368)
 64:   3122.02   0.000255    1.29  0.000026  (-0.004461 -0.000538  0.002308)
 65:   3125.09   0.000346    1.75  0.000035  (-0.005166  0.002066 -0.001903)
 66:   3140.83   0.002093   10.58  0.000208  ( 0.004745 -0.013419 -0.002320)
 67:   3185.96   0.000044    0.22  0.000004  (-0.001987 -0.000548 -0.000111)
 68:   3188.07   0.000103    0.52  0.000010  ( 0.001723  0.000598  0.002601)
 69:   3243.08   0.111638  564.17  0.010742  ( 0.018492 -0.036873  0.095083)
 70:   3341.24   0.023091  116.69  0.002157  ( 0.004531  0.035190  0.029963)
 71:   3561.00   0.027494  138.94  0.002409  ( 0.032629 -0.034848  0.011419)
 72:   3675.48   0.014215   71.84  0.001207  ( 0.025991  0.022718 -0.003913)
 73:   3701.85   0.004860   24.56  0.000410  ( 0.001723 -0.020097  0.001680)
 74:   3803.74   0.024937  126.02  0.002046  (-0.038454  0.011838  0.020663)

--------------------------
THERMOCHEMISTRY AT 298.15K
--------------------------

Temperature         ... 298.15 K
Pressure            ... 1.00 atm
Total Mass          ... 190.18 AMU

Throughout the following assumptions are being made:
  (1) The electronic state is orbitally nondegenerate
  (2) There are no thermally accessible electronically excited states
  (3) Hindered rotations indicated by low frequency modes are not
      treated as such but are treated as vibrations and this may
      cause some error
  (4) All equations used are the standard statistical mechanics
      equations for an ideal gas
  (5) All vibrations are strictly harmonic

freq.      53.76  E(vib)   ...       0.52
freq.      63.58  E(vib)   ...       0.51
freq.      66.45  E(vib)   ...       0.50
freq.      88.27  E(vib)   ...       0.48
freq.     110.52  E(vib)   ...       0.45
freq.     120.47  E(vib)   ...       0.44
freq.     186.23  E(vib)   ...       0.37
freq.     222.95  E(vib)   ...       0.33
freq.     242.16  E(vib)   ...       0.31
freq.     259.95  E(vib)   ...       0.30
freq.     278.18  E(vib)   ...       0.28
freq.     309.73  E(vib)   ...       0.26
freq.     359.95  E(vib)   ...       0.22
freq.     409.54  E(vib)   ...       0.19
freq.     438.62  E(vib)   ...       0.17
freq.     464.04  E(vib)   ...       0.16
freq.     481.60  E(vib)   ...       0.15
freq.     520.72  E(vib)   ...       0.13
freq.     524.70  E(vib)   ...       0.13
freq.     613.65  E(vib)   ...       0.10
freq.     631.07  E(vib)   ...       0.09
freq.     646.11  E(vib)   ...       0.09
freq.     671.32  E(vib)   ...       0.08
freq.     703.61  E(vib)   ...       0.07
freq.     722.66  E(vib)   ...       0.07
freq.     879.30  E(vib)   ...       0.04
freq.     888.99  E(vib)   ...       0.04
freq.     916.38  E(vib)   ...       0.03
freq.     931.57  E(vib)   ...       0.03
freq.    1010.64  E(vib)   ...       0.02
freq.    1043.43  E(vib)   ...       0.02
freq.    1057.60  E(vib)   ...       0.02
freq.    1082.71  E(vib)   ...       0.02
freq.    1129.65  E(vib)   ...       0.01
freq.    1136.98  E(vib)   ...       0.01
freq.    1168.81  E(vib)   ...       0.01
freq.    1208.97  E(vib)   ...       0.01
freq.    1258.26  E(vib)   ...       0.01
freq.    1271.36  E(vib)   ...       0.01
freq.    1273.65  E(vib)   ...       0.01
freq.    1314.03  E(vib)   ...       0.01
freq.    1342.83  E(vib)   ...       0.01
freq.    1345.89  E(vib)   ...       0.01
freq.    1365.17  E(vib)   ...       0.01
freq.    1413.73  E(vib)   ...       0.00
freq.    1464.14  E(vib)   ...       0.00
freq.    1470.39  E(vib)   ...       0.00
freq.    1476.71  E(vib)   ...       0.00
freq.    1493.74  E(vib)   ...       0.00
freq.    1512.81  E(vib)   ...       0.00
freq.    1567.71  E(vib)   ...       0.00
freq.    1581.91  E(vib)   ...       0.00
freq.    1611.20  E(vib)   ...       0.00
freq.    1685.35  E(vib)   ...       0.00
freq.    1781.49  E(vib)   ...       0.00
freq.    1792.44  E(vib)   ...       0.00
freq.    1837.26  E(vib)   ...       0.00
freq.    3087.33  E(vib)   ...       0.00
freq.    3122.02  E(vib)   ...       0.00
freq.    3125.09  E(vib)   ...       0.00
freq.    3140.83  E(vib)   ...       0.00
freq.    3185.96  E(vib)   ...       0.00
freq.    3188.07  E(vib)   ...       0.00
freq.    3243.08  E(vib)   ...       0.00
freq.    3341.24  E(vib)   ...       0.00
freq.    3561.00  E(vib)   ...       0.00
freq.    3675.48  E(vib)   ...       0.00
freq.    3701.85  E(vib)   ...       0.00
freq.    3803.74  E(vib)   ...       0.00

------------
INNER ENERGY
------------

The inner energy is: U= E(el) + E(ZPE) + E(vib) + E(rot) + E(trans)
    E(el)   - is the total energy from the electronic structure calculation
              = E(kin-el) + E(nuc-el) + E(el-el) + E(nuc-nuc)
    E(ZPE)  - the the zero temperature vibrational energy from the frequency calculation
    E(vib)  - the the finite temperature correction to E(ZPE) due to population
              of excited vibrational states
    E(rot)  - is the rotational thermal energy
    E(trans)- is the translational thermal energy

Summary of contributions to the inner energy U:
Electronic energy                ...   -701.34906157 Eh
Zero point energy                ...      0.20886380 Eh     131.06 kcal/mol
Thermal vibrational correction   ...      0.01068157 Eh       6.70 kcal/mol
Thermal rotational correction    ...      0.00141627 Eh       0.89 kcal/mol
Thermal translational correction ...      0.00141627 Eh       0.89 kcal/mol
-----------------------------------------------------------------------
Total thermal energy                   -701.12668366 Eh

Summary of corrections to the electronic energy:
(perhaps to be used in another calculation)
Total thermal correction                  0.01351411 Eh       8.48 kcal/mol
Non-thermal (ZPE) correction              0.20886380 Eh     131.06 kcal/mol
-----------------------------------------------------------------------
Total correction                          0.22237791 Eh     139.54 kcal/mol

--------
ENTHALPY
--------

The enthalpy is H = U + kB*T
                kB is Boltzmann's constant
Total free energy                 ...   -701.12668366 Eh
Thermal Enthalpy correction       ...      0.00094421 Eh       0.59 kcal/mol
-----------------------------------------------------------------------
Total Enthalpy                    ...   -701.12573945 Eh

Note: Only C1 symmetry has been detected, increase convergence thresholds
      if your molecule has a higher symmetry. Symmetry factor of 1.0 is
      used for the rotational entropy correction.

Note: Rotational entropy computed according to Herzberg
Infrared and Raman Spectra, Chapter V,1, Van Nostrand Reinhold, 1945
Point Group:  C1, Symmetry Number:   1
Rotational constants in cm-1:     0.029676     0.024662     0.015378

Vibrational entropy computed according to the QRRHO of S. Grimme
Chem.Eur.J. 2012 18 9955

-------
ENTROPY
-------

The entropy contributions are T*S = T*(S(el)+S(vib)+S(rot)+S(trans))
     S(el)   - electronic entropy
     S(vib)  - vibrational entropy
     S(rot)  - rotational entropy
     S(trans)- translational entropy
The entropies will be listed as multiplied by the temperature to get
units of energy

Electronic entropy                ...      0.00000000 Eh      0.00 kcal/mol
Vibrational entropy               ...      0.01868926 Eh     11.73 kcal/mol
Rotational entropy                ...      0.01489016 Eh      9.34 kcal/mol
Translational entropy             ...      0.01978162 Eh     12.41 kcal/mol
-----------------------------------------------------------------------

                             ****ORCA TERMINATED NORMALLY****
TOTAL RUN TIME: 0 days 1 hours 39 minutes 6 seconds 670 msec
