                         Program Version 5.0.3 -  RELEASE  -
|  1> ! wB97X-D3 TightOpt Freq def2-TZVPP def2/J RIJCOSX TightSCF defgrid3 CHELPG
|  2> %maxcore 3200
|  3>
|  4> %pal nprocs 8
|  5> end
|  6>
|  7> %chelpg
|  8> grid 0.1
|  9> rmax 3.0
| 10> end
| 11>
| 12>
| 13> *xyz 1 1
| 14>  C    -3.6101077683    2.8748967342    -1.3698301904
| 15>  N    -2.9223437950    2.4577892272    -0.1381856578
| 16>  C    -3.7247005183    1.5625600877    0.7372400521
| 17>  C    -2.8069912275    0.8449183721    1.7197904834
| 18>  C    -1.8211020834    -0.0946658104    0.9933942465
| 19>  C    -2.5642715366    -1.1259157001    0.1650682491
| 20>  C    -3.1676422896    -2.1972476974    0.8131876492
| 21>  C    -3.8717249987    -3.1425943501    0.0901779227
| 22>  C    -3.9760461334    -3.0298471544    -1.2868510042
| 23>  C    -3.3696407590    -1.9704350802    -1.9380673595
| 24>  C    -2.6696363970    -1.0190601241    -1.2150510730
| 25>  O    -0.9633359826    0.7048590423    0.1660361838
| 26>  C    0.4060260944    0.5034393367    0.1992144173
| 27>  C    1.1128626211    0.3192944081    1.3797168661
| 28>  C    2.4884170156    0.1824053116    1.3385861958
| 29>  C    3.1524889253    0.2358720252    0.1223022346
| 30>  C    2.4484973245    0.4375260842    -1.0576409167
| 31>  C    1.0748888026    0.5693112555    -1.0181489357
| 32>  C    4.6536361299    0.1242835704    0.0726893692
| 33>  F    5.2301464602    1.3395079255    0.0225236080
| 34>  F    5.1600818201    -0.4968515647    1.1424991095
| 35>  F    5.0759191551    -0.5423468508    -1.0087125222
| 36>  H    -3.8577993438    1.9985631965    -1.9656265287
| 37>  H    -2.9695422984    3.5309041993    -1.9554544596
| 38>  H    -4.5297239459    3.4050962688    -1.1276729425
| 39>  H    -2.6357995535    3.2853345642    0.3948126068
| 40>  H    -4.2198645857    0.8238053020    0.1026609897
| 41>  H    -4.4852705150    2.1448952341    1.2598715092
| 42>  H    -3.4165901371    0.2482447802    2.3968644508
| 43>  H    -2.2482528877    1.5686355975    2.3170507056
| 44>  H    -1.2248089358    -0.6215091744    1.7441256025
| 45>  H    -3.0763582714    -2.2963267211    1.8847532942
| 46>  H    -4.3322773788    -3.9728809025    0.6017419243
| 47>  H    -4.5196089265    -3.7711300700    -1.8507077233
| 48>  H    -3.4359748278    -1.8837473476    -3.0116698142
| 49>  H    -2.1774474647    -0.2094300784    -1.7352155658
| 50>  H    0.6100814718    0.2920090117    2.3342349911
| 51>  H    3.0429985667    0.0366742488    2.2521900135
| 52>  H    2.9724259303    0.4783421320    -1.9995469364
| 53>  H    0.5153404538    0.7179464963    -1.9281024278
| 54>  H    -2.0470544725    1.9128799322    -0.3464556567
| 55> *
| 56>
| 57>
| 58>                          ****END OF INPUT****
 Total Charge           Charge          ....    1
 Multiplicity           Mult            ....    1
 Number of Electrons    NEL             ....  162
Dispersion correction           -0.019946830
FINAL SINGLE POINT ENERGY     -1088.679076254034
Dispersion correction            ... done
Dispersion correction           -0.019575653
FINAL SINGLE POINT ENERGY     -1088.680473314000
Dispersion correction            ... done
Dispersion correction           -0.019775055
FINAL SINGLE POINT ENERGY     -1088.681136402669
Dispersion correction            ... done
FINAL SINGLE POINT ENERGY     -1088.681497557121
FINAL SINGLE POINT ENERGY     -1088.681685529639
FINAL SINGLE POINT ENERGY     -1088.681923861513
FINAL SINGLE POINT ENERGY     -1088.682088948096
FINAL SINGLE POINT ENERGY     -1088.682304377155
FINAL SINGLE POINT ENERGY     -1088.682420879306
FINAL SINGLE POINT ENERGY     -1088.682505631520
FINAL SINGLE POINT ENERGY     -1088.685386477591
FINAL SINGLE POINT ENERGY     -1088.685386993133
FINAL SINGLE POINT ENERGY     -1088.685385068066
FINAL SINGLE POINT ENERGY     -1088.685374347603
FINAL SINGLE POINT ENERGY     -1088.685388814285
FINAL SINGLE POINT ENERGY     -1088.685396807828
FINAL SINGLE POINT ENERGY     -1088.685397722949
Dispersion correction           -0.020346097
FINAL SINGLE POINT ENERGY     -1088.685399370153
Dispersion correction            ... done
Dispersion correction           -0.020345228
FINAL SINGLE POINT ENERGY     -1088.685399856136
Dispersion correction            ... done
                    ***********************HURRAY********************

CARTESIAN COORDINATES (ANGSTROEM)
---------------------------------
  C     -3.696693    2.714074   -1.734394
  N     -3.085782    2.507258   -0.397930
  C     -3.887146    1.626417    0.518572
  C     -3.041176    1.139480    1.681719
  C     -1.883796    0.224863    1.263568
  C     -2.369853   -0.991330    0.500641
  C     -3.020859   -2.004013    1.197957
  C     -3.530268   -3.103421    0.526786
  C     -3.389923   -3.204567   -0.850113
  C     -2.731233   -2.206002   -1.548770
  C     -2.223281   -1.102672   -0.876548
  O     -1.003879    1.044484    0.491622
  C      0.313031    0.668894    0.323618
  C      0.815271   -0.559080    0.715165
  C      2.160456   -0.834867    0.504158
  C      2.983323    0.098548   -0.095457
  C      2.465068    1.327172   -0.489481
  C      1.133147    1.614440   -0.279628
  C      4.448260   -0.177216   -0.319645
  F      5.211858    0.620659    0.440681
  F      4.773383   -1.439756   -0.030663
  F      4.793715    0.049474   -1.595021
  H     -3.768378    1.749796   -2.230795
  H     -3.070586    3.385948   -2.315345
  H     -4.688435    3.141913   -1.611144
  H     -2.933203    3.404963    0.057220
  H     -4.236645    0.789279   -0.084992
  H     -4.750052    2.200270    0.852078
  H     -3.698524    0.582692    2.349434
  H     -2.646272    1.980483    2.256659
  H     -1.360089   -0.088063    2.170579
  H     -3.122744   -1.942663    2.276161
  H     -4.030028   -3.887149    1.080710
  H     -3.781319   -4.066646   -1.373615
  H     -2.598056   -2.290299   -2.619479
  H     -1.676010   -0.349214   -1.430567
  H      0.185152   -1.314280    1.161538
  H      2.558701   -1.793219    0.806455
  H      3.108067    2.061213   -0.957203
  H      0.725500    2.574618   -0.568805
  H     -2.150805    2.073525   -0.467933

 Multiplicity           Mult            ....    1
 Number of Electrons    NEL             ....  162
 Basis Dimension        Dim             ....  948

ORBITAL ENERGIES
----------------

  NO   OCC          E(Eh)            E(eV)
   0   2.0000     -24.891521      -677.3327
   1   2.0000     -24.887466      -677.2224
   2   2.0000     -24.886050      -677.1838
   3   2.0000     -19.413040      -528.2557
   4   2.0000     -14.703652      -400.1067
   5   2.0000     -10.605755      -288.5973
   6   2.0000     -10.495079      -285.5856
   7   2.0000     -10.491524      -285.4889
   8   2.0000     -10.488932      -285.4183
   9   2.0000     -10.468515      -284.8628
  10   2.0000     -10.442741      -284.1614
  11   2.0000     -10.415654      -283.4243
  12   2.0000     -10.403119      -283.0833
  13   2.0000     -10.400894      -283.0227
  14   2.0000     -10.400643      -283.0159
  15   2.0000     -10.399879      -282.9951
  16   2.0000     -10.399089      -282.9736
  17   2.0000     -10.398882      -282.9680
  18   2.0000     -10.397747      -282.9371
  19   2.0000     -10.396808      -282.9115
  20   2.0000     -10.395532      -282.8768
  21   2.0000     -10.392112      -282.7838
  22   2.0000      -1.508699       -41.0538
  23   2.0000      -1.418412       -38.5970
  24   2.0000      -1.413627       -38.4667
  25   2.0000      -1.333872       -36.2965
  26   2.0000      -1.289934       -35.1009
  27   2.0000      -1.114478       -30.3265
  28   2.0000      -1.100308       -29.9409
  29   2.0000      -1.076483       -29.2926
  30   2.0000      -1.023013       -27.8376
  31   2.0000      -1.000321       -27.2201
  32   2.0000      -0.989573       -26.9277
  33   2.0000      -0.986595       -26.8466
  34   2.0000      -0.984356       -26.7857
  35   2.0000      -0.954548       -25.9746
  36   2.0000      -0.906112       -24.6566
  37   2.0000      -0.887233       -24.1428
  38   2.0000      -0.869494       -23.6601
  39   2.0000      -0.848929       -23.1005
  40   2.0000      -0.840913       -22.8824
  41   2.0000      -0.834106       -22.6972
  42   2.0000      -0.812138       -22.0994
  43   2.0000      -0.783834       -21.3292
  44   2.0000      -0.776906       -21.1407
  45   2.0000      -0.773851       -21.0576
  46   2.0000      -0.773026       -21.0351
  47   2.0000      -0.771602       -20.9963
  48   2.0000      -0.755913       -20.5694
  49   2.0000      -0.744595       -20.2615
  50   2.0000      -0.723940       -19.6994
  51   2.0000      -0.706955       -19.2372
  52   2.0000      -0.688674       -18.7398
  53   2.0000      -0.684700       -18.6316
  54   2.0000      -0.677380       -18.4324
  55   2.0000      -0.671102       -18.2616
  56   2.0000      -0.666433       -18.1346
  57   2.0000      -0.664905       -18.0930
  58   2.0000      -0.650688       -17.7061
  59   2.0000      -0.648622       -17.6499
  60   2.0000      -0.647192       -17.6110
  61   2.0000      -0.645271       -17.5587
  62   2.0000      -0.641395       -17.4532
  63   2.0000      -0.633932       -17.2502
  64   2.0000      -0.627624       -17.0785
  65   2.0000      -0.624248       -16.9867
  66   2.0000      -0.613100       -16.6833
  67   2.0000      -0.603618       -16.4253
  68   2.0000      -0.602900       -16.4057
  69   2.0000      -0.599015       -16.3000
  70   2.0000      -0.585909       -15.9434
  71   2.0000      -0.579062       -15.7571
  72   2.0000      -0.566982       -15.4284
  73   2.0000      -0.558048       -15.1853
  74   2.0000      -0.553038       -15.0489
  75   2.0000      -0.549395       -14.9498
  76   2.0000      -0.542113       -14.7516
  77   2.0000      -0.466255       -12.6874
  78   2.0000      -0.460480       -12.5303
  79   2.0000      -0.454611       -12.3706
  80   2.0000      -0.439712       -11.9652
  81   0.0000      -0.069003        -1.8777
  82   0.0000      -0.063135        -1.7180
  83   0.0000      -0.056616        -1.5406
  84   0.0000      -0.051217        -1.3937
  85   0.0000      -0.047411        -1.2901

MULLIKEN ATOMIC CHARGES
-----------------------
   0 C :   -0.163101
   1 N :    0.081609
   2 C :   -0.193249
   3 C :   -0.149698
   4 C :    0.203774
   5 C :    0.000082
   6 C :   -0.185450
   7 C :   -0.125821
   8 C :   -0.093894
   9 C :   -0.143220
  10 C :   -0.217837
  11 O :   -0.370632
  12 C :    0.299637
  13 C :   -0.119931
  14 C :   -0.158779
  15 C :   -0.076433
  16 C :   -0.117986
  17 C :   -0.230289
  18 C :    0.551787
  19 F :   -0.162885
  20 F :   -0.165238
  21 F :   -0.167001
  22 H :    0.133584
  23 H :    0.141742
  24 H :    0.139730
  25 H :    0.172501
  26 H :    0.160868
  27 H :    0.156881
  28 H :    0.111890
  29 H :    0.116789
  30 H :    0.137416
  31 H :    0.129418
  32 H :    0.148581
  33 H :    0.150330
  34 H :    0.146075
  35 H :    0.132102
  36 H :    0.132523
  37 H :    0.149894
  38 H :    0.136911
  39 H :    0.110598
  40 H :    0.196722
Sum of atomic charges:    1.0000000

LOEWDIN ATOMIC CHARGES
----------------------
   0 C :    0.072915
   1 N :    0.524701
   2 C :    0.020244
   3 C :   -0.004039
   4 C :   -0.141772
   5 C :   -0.098674
   6 C :   -0.002916
   7 C :    0.009631
   8 C :    0.008698
   9 C :    0.000841
  10 C :   -0.021321
  11 O :    0.301259
  12 C :   -0.195547
  13 C :   -0.005682
  14 C :    0.033718
  15 C :   -0.090440
  16 C :    0.032607
  17 C :   -0.012271
  18 C :   -0.639889
  19 F :    0.204753
  20 F :    0.215888
  21 F :    0.204996
  22 H :    0.029018
  23 H :    0.027035
  24 H :    0.029473
  25 H :    0.044831
  26 H :    0.038861
  27 H :    0.033176
  28 H :    0.048446
  29 H :    0.034433
  30 H :    0.042293
  31 H :    0.028622
  32 H :    0.031108
  33 H :    0.030470
  34 H :    0.028769
  35 H :    0.017839
  36 H :    0.028330
  37 H :    0.035795
  38 H :    0.039123
  39 H :    0.019983
  40 H :   -0.005305

  Mayer bond orders larger than 0.100000
B(  0-C ,  1-N ) :   0.8951 B(  0-C , 22-H ) :   0.9773 B(  0-C , 23-H ) :   0.9717
B(  0-C , 24-H ) :   0.9728 B(  1-N ,  2-C ) :   0.8605 B(  1-N , 25-H ) :   0.9570
B(  1-N , 40-H ) :   0.9049 B(  2-C ,  3-C ) :   0.9241 B(  2-C , 26-H ) :   0.9889
B(  2-C , 27-H ) :   0.9872 B(  3-C ,  4-C ) :   0.9149 B(  3-C , 28-H ) :   0.9955
B(  3-C , 29-H ) :   1.0146 B(  4-C ,  5-C ) :   0.8448 B(  4-C , 11-O ) :   0.8725
B(  4-C , 30-H ) :   1.0324 B(  5-C ,  6-C ) :   1.3927 B(  5-C , 10-C ) :   1.2182
B(  6-C ,  7-C ) :   1.4874 B(  6-C , 31-H ) :   0.9745 B(  7-C ,  8-C ) :   1.4203
B(  7-C , 32-H ) :   0.9679 B(  8-C ,  9-C ) :   1.4502 B(  8-C , 33-H ) :   0.9662
B(  9-C , 10-C ) :   1.4873 B(  9-C , 34-H ) :   0.9680 B( 10-C , 35-H ) :   0.9986
B( 11-O , 12-C ) :   0.9426 B( 11-O , 40-H ) :   0.1069 B( 12-C , 13-C ) :   1.3611
B( 12-C , 17-C ) :   1.3650 B( 13-C , 14-C ) :   1.4613 B( 13-C , 36-H ) :   0.9688
B( 14-C , 15-C ) :   1.4357 B( 14-C , 37-H ) :   0.9324 B( 15-C , 16-C ) :   1.4132
B( 15-C , 18-C ) :   0.9899 B( 16-C , 17-C ) :   1.5332 B( 16-C , 38-H ) :   0.9512
B( 17-C , 39-H ) :   0.9698 B( 18-C , 19-F ) :   1.1400 B( 18-C , 20-F ) :   1.1358
B( 18-C , 21-F ) :   1.1327

Dispersion correction           -0.020343488
FINAL SINGLE POINT ENERGY     -1088.685400413316

DIPOLE MOMENT
-------------
                                X             Y             Z
Electronic contribution:     46.46967      -6.04706      -0.98710
Nuclear contribution   :    -52.75459       9.02042       0.90220
                        -----------------------------------------
Total Dipole Moment    :     -6.28492       2.97336      -0.08490
                        -----------------------------------------
Magnitude (a.u.)       :      6.95329
Magnitude (Debye)      :     17.67387

Dispersion correction in the Hessian             ... done   (      1.0 sec)

VIBRATIONAL FREQUENCIES
-----------------------

Scaling factor for frequencies =  1.000000000  (already applied!)

   0:         0.00 cm**-1
   1:         0.00 cm**-1
   2:         0.00 cm**-1
   3:         0.00 cm**-1
   4:         0.00 cm**-1
   5:         0.00 cm**-1
   6:         8.57 cm**-1
   7:        20.18 cm**-1
   8:        27.19 cm**-1
   9:        43.17 cm**-1
  10:        45.76 cm**-1
  11:        61.24 cm**-1
  12:        84.60 cm**-1
  13:       112.42 cm**-1
  14:       118.80 cm**-1
  15:       156.67 cm**-1
  16:       191.42 cm**-1
  17:       203.96 cm**-1
  18:       212.12 cm**-1
  19:       242.94 cm**-1
  20:       266.04 cm**-1
  21:       283.07 cm**-1
  22:       301.99 cm**-1
  23:       329.53 cm**-1
  24:       369.33 cm**-1
  25:       406.96 cm**-1
  26:       412.76 cm**-1
  27:       414.70 cm**-1
  28:       418.96 cm**-1
  29:       432.09 cm**-1
  30:       501.69 cm**-1
  31:       517.64 cm**-1
  32:       525.54 cm**-1
  33:       567.61 cm**-1
  34:       586.15 cm**-1
  35:       607.06 cm**-1
  36:       631.93 cm**-1
  37:       636.66 cm**-1
  38:       659.53 cm**-1
  39:       684.85 cm**-1
  40:       734.60 cm**-1
  41:       764.74 cm**-1
  42:       769.17 cm**-1
  43:       780.51 cm**-1
  44:       815.67 cm**-1
  45:       826.38 cm**-1
  46:       843.69 cm**-1
  47:       849.64 cm**-1
  48:       867.42 cm**-1
  49:       872.65 cm**-1
  50:       886.96 cm**-1
  51:       939.51 cm**-1
  52:       968.26 cm**-1
  53:       973.46 cm**-1
  54:       997.37 cm**-1
  55:      1014.85 cm**-1
  56:      1025.72 cm**-1
  57:      1028.52 cm**-1
  58:      1031.43 cm**-1
  59:      1039.99 cm**-1
  60:      1051.70 cm**-1
  61:      1053.43 cm**-1
  62:      1067.36 cm**-1
  63:      1076.88 cm**-1
  64:      1098.58 cm**-1
  65:      1108.37 cm**-1
  66:      1127.72 cm**-1
  67:      1147.83 cm**-1
  68:      1156.83 cm**-1
  69:      1185.80 cm**-1
  70:      1186.42 cm**-1
  71:      1191.48 cm**-1
  72:      1209.34 cm**-1
  73:      1215.11 cm**-1
  74:      1218.09 cm**-1
  75:      1233.23 cm**-1
  76:      1270.09 cm**-1
  77:      1285.59 cm**-1
  78:      1314.48 cm**-1
  79:      1327.20 cm**-1
  80:      1339.93 cm**-1
  81:      1348.09 cm**-1
  82:      1355.37 cm**-1
  83:      1361.47 cm**-1
  84:      1367.80 cm**-1
  85:      1386.90 cm**-1
  86:      1397.82 cm**-1
  87:      1418.16 cm**-1
  88:      1428.02 cm**-1
  89:      1468.78 cm**-1
  90:      1474.56 cm**-1
  91:      1481.15 cm**-1
  92:      1485.80 cm**-1
  93:      1504.81 cm**-1
  94:      1505.57 cm**-1
  95:      1512.56 cm**-1
  96:      1513.91 cm**-1
  97:      1552.24 cm**-1
  98:      1574.48 cm**-1
  99:      1669.92 cm**-1
 100:      1678.40 cm**-1
 101:      1682.25 cm**-1
 102:      1688.93 cm**-1
 103:      1703.93 cm**-1
 104:      3075.84 cm**-1
 105:      3084.87 cm**-1
 106:      3097.28 cm**-1
 107:      3106.87 cm**-1
 108:      3142.95 cm**-1
 109:      3165.89 cm**-1
 110:      3184.84 cm**-1
 111:      3194.82 cm**-1
 112:      3197.68 cm**-1
 113:      3200.41 cm**-1
 114:      3208.35 cm**-1
 115:      3212.73 cm**-1
 116:      3221.24 cm**-1
 117:      3227.40 cm**-1
 118:      3232.79 cm**-1
 119:      3233.00 cm**-1
 120:      3246.10 cm**-1
 121:      3266.30 cm**-1
 122:      3518.90 cm**-1

IR SPECTRUM
-----------

 Mode   freq       eps      Int      T**2         TX        TY        TZ
       cm**-1   L/(mol*cm) km/mol    a.u.
----------------------------------------------------------------------------
  6:      8.57   0.000040    0.20  0.001464  (-0.005738 -0.006822 -0.037211)
  7:     20.18   0.000150    0.76  0.002320  (-0.016593 -0.044994 -0.004519)
  8:     27.19   0.000622    3.14  0.007139  ( 0.031495  0.075604  0.020763)
  9:     43.17   0.000037    0.19  0.000271  (-0.003079  0.000017 -0.016160)
 10:     45.76   0.000333    1.68  0.002269  (-0.047399 -0.004693  0.000034)
 11:     61.24   0.000573    2.90  0.002921  ( 0.041467 -0.034641 -0.001116)
 12:     84.60   0.000455    2.30  0.001678  ( 0.035514 -0.010237  0.017665)
 13:    112.42   0.000650    3.28  0.001804  (-0.006913 -0.024582 -0.033941)
 14:    118.80   0.000416    2.10  0.001094  ( 0.030450  0.003173  0.012501)
 15:    156.67   0.001888    9.54  0.003761  (-0.052819  0.031011  0.003127)
 16:    191.42   0.000707    3.57  0.001152  (-0.030568  0.012300 -0.008172)
 17:    203.96   0.000575    2.91  0.000880  ( 0.004122 -0.028400  0.007491)
 18:    212.12   0.000520    2.63  0.000766  (-0.004892  0.018778 -0.019724)
 19:    242.94   0.003552   17.95  0.004562  ( 0.038280 -0.055283  0.006390)
 20:    266.04   0.000613    3.10  0.000719  ( 0.022244 -0.003137  0.014642)
 21:    283.07   0.001117    5.65  0.001232  (-0.025103  0.018806 -0.015739)
 22:    301.99   0.000160    0.81  0.000165  (-0.002951  0.006122  0.010907)
 23:    329.53   0.000575    2.91  0.000544  ( 0.019753  0.001150  0.012364)
 24:    369.33   0.000509    2.57  0.000430  (-0.000743 -0.015788  0.013417)
 25:    406.96   0.000540    2.73  0.000414  (-0.002434  0.019115 -0.006537)
 26:    412.76   0.001292    6.53  0.000977  ( 0.026048 -0.012530  0.011887)
 27:    414.70   0.000269    1.36  0.000203  ( 0.008931 -0.006532  0.008961)
 28:    418.96   0.000093    0.47  0.000069  ( 0.001985 -0.007715  0.002385)
 29:    432.09   0.000030    0.15  0.000022  ( 0.001940 -0.002116  0.003711)
 30:    501.69   0.001447    7.31  0.000900  ( 0.027696 -0.010282 -0.005214)
 31:    517.64   0.000335    1.69  0.000202  ( 0.008678  0.004785  0.010193)
 32:    525.54   0.000465    2.35  0.000276  (-0.002372  0.003777  0.016001)
 33:    567.61   0.000290    1.46  0.000159  ( 0.001092 -0.012258 -0.002785)
 34:    586.15   0.000011    0.06  0.000006  ( 0.002369 -0.000306 -0.000310)
 35:    607.06   0.002678   13.53  0.001377  ( 0.010399  0.011657  0.033654)
 36:    631.93   0.002785   14.07  0.001375  ( 0.029010 -0.021374 -0.008752)
 37:    636.66   0.000076    0.38  0.000037  (-0.001426  0.005070 -0.003076)
 38:    659.53   0.002765   13.97  0.001308  ( 0.034842 -0.008059 -0.005408)
 39:    684.85   0.002805   14.17  0.001278  ( 0.035390  0.004543  0.002221)
 40:    734.60   0.008114   41.01  0.003447  (-0.053380  0.023384 -0.007118)
 41:    764.74   0.000338    1.71  0.000138  (-0.006327  0.008335  0.005335)
 42:    769.17   0.000290    1.47  0.000118  (-0.007129 -0.000418 -0.008167)
 43:    780.51   0.008811   44.53  0.003523  ( 0.047934 -0.033751  0.009267)
 44:    815.67   0.000769    3.89  0.000294  (-0.003212 -0.012470 -0.011338)
 45:    826.38   0.004292   21.69  0.001621  (-0.027120  0.028001  0.010064)
 46:    843.69   0.000114    0.57  0.000042  (-0.001298 -0.005242 -0.003593)
 47:    849.64   0.000335    1.69  0.000123  (-0.005773 -0.007320 -0.006000)
 48:    867.42   0.003774   19.07  0.001358  ( 0.023000 -0.017009 -0.023225)
 49:    872.65   0.011675   59.00  0.004175  (-0.031606 -0.020650 -0.052438)
 50:    886.96   0.000231    1.17  0.000081  (-0.008229 -0.002422 -0.002802)
 51:    939.51   0.001128    5.70  0.000375  ( 0.019176  0.001610 -0.002119)
 52:    968.26   0.001722    8.70  0.000555  (-0.018116  0.014986 -0.001513)
 53:    973.46   0.004542   22.95  0.001456  (-0.036448  0.011196 -0.001480)
 54:    997.37   0.000615    3.11  0.000193  (-0.000224  0.004824  0.013008)
 55:   1014.85   0.000102    0.52  0.000031  (-0.002798  0.000411 -0.004835)
 56:   1025.72   0.000482    2.44  0.000147  ( 0.004618  0.011079 -0.001638)
 57:   1028.52   0.000318    1.61  0.000097  ( 0.004337  0.008297 -0.002985)
 58:   1031.43   0.000621    3.14  0.000188  (-0.010219 -0.009125 -0.000299)
 59:   1039.99   0.007094   35.85  0.002129  (-0.045612  0.003647  0.005897)
 60:   1051.70   0.002815   14.23  0.000835  ( 0.017842  0.022612 -0.002370)
 61:   1053.43   0.000126    0.64  0.000037  ( 0.004890  0.003657 -0.000382)
 62:   1067.36   0.002050   10.36  0.000599  ( 0.019074  0.011509 -0.010158)
 63:   1076.88   0.011501   58.12  0.003333  ( 0.036727  0.024225 -0.037378)
 64:   1098.58   0.009364   47.32  0.002660  (-0.046688 -0.012669  0.017880)
 65:   1108.37   0.017908   90.50  0.005042  ( 0.068900 -0.017033 -0.002152)
 66:   1127.72   0.000314    1.59  0.000087  ( 0.007819  0.003308  0.003842)
 67:   1147.83   0.008332   42.11  0.002265  (-0.002234  0.041692 -0.022849)
 68:   1156.83   0.000819    4.14  0.000221  ( 0.014835  0.000133 -0.000915)
 69:   1185.80   0.003833   19.37  0.001009  ( 0.015253 -0.005448 -0.027319)
 70:   1186.42   0.049097  248.12  0.012914  ( 0.033184  0.041078  0.100625)
 71:   1191.48   0.000529    2.67  0.000139  (-0.011587 -0.002014 -0.000554)
 72:   1209.34   0.032108  162.26  0.008285  (-0.065577 -0.053030  0.034245)
 73:   1215.11   0.001346    6.80  0.000346  (-0.007691  0.016014 -0.005492)
 74:   1218.09   0.015385   77.75  0.003942  (-0.009927  0.059407 -0.017715)
 75:   1233.23   0.002463   12.45  0.000623  (-0.004569 -0.024538 -0.000515)
 76:   1270.09   0.064260  324.75  0.015789  ( 0.124900 -0.012339 -0.006054)
 77:   1285.59   0.000724    3.66  0.000176  (-0.001932 -0.013100 -0.000655)
 78:   1314.48   0.000612    3.09  0.000145  (-0.003816 -0.008674 -0.007453)
 79:   1327.20   0.001641    8.29  0.000386  ( 0.007858  0.014005  0.011313)
 80:   1339.93   0.003907   19.75  0.000910  ( 0.017597 -0.023507  0.006910)
 81:   1348.09   0.012059   60.94  0.002791  (-0.048419  0.020019  0.006801)
 82:   1355.37   0.029644  149.81  0.006825  (-0.082211 -0.002203  0.007863)
 83:   1361.47   0.033056  167.05  0.007577  ( 0.083616 -0.016431 -0.017756)
 84:   1367.80   0.007085   35.81  0.001616  (-0.039618  0.006410 -0.002406)
 85:   1386.90   0.000914    4.62  0.000206  (-0.002190  0.014112 -0.001291)
 86:   1397.82   0.005045   25.50  0.001126  ( 0.029468  0.010186  0.012421)
 87:   1418.16   0.004613   23.31  0.001015  ( 0.015226  0.017075 -0.022174)
 88:   1428.02   0.003267   16.51  0.000714  (-0.016195  0.021039  0.002988)
 89:   1468.78   0.007973   40.29  0.001694  ( 0.019549 -0.030601  0.019374)
 90:   1474.56   0.001221    6.17  0.000258  (-0.005510  0.012782 -0.008039)
 91:   1481.15   0.002520   12.74  0.000531  (-0.004159  0.010377  0.020149)
 92:   1485.80   0.005169   26.12  0.001086  (-0.019966  0.015568 -0.021089)
 93:   1504.81   0.004420   22.34  0.000917  ( 0.026516 -0.008046 -0.012198)
 94:   1505.57   0.005618   28.39  0.001164  ( 0.007719 -0.030987  0.012028)
 95:   1512.56   0.009016   45.56  0.001860  ( 0.015180 -0.023729  0.032658)
 96:   1513.91   0.001880    9.50  0.000388  ( 0.014994  0.011764  0.004939)
 97:   1552.24   0.001754    8.87  0.000353  ( 0.008213  0.014380  0.008857)
 98:   1574.48   0.012758   64.48  0.002529  ( 0.049664  0.003323 -0.007154)
 99:   1669.92   0.000634    3.21  0.000119  ( 0.006381 -0.004755  0.007431)
100:   1678.40   0.003542   17.90  0.000659  ( 0.002579 -0.025008  0.005152)
101:   1682.25   0.010223   51.66  0.001896  ( 0.042751  0.004680  0.006840)
102:   1688.93   0.000128    0.65  0.000024  (-0.000603  0.004503 -0.001734)
103:   1703.93   0.017769   89.80  0.003254  (-0.056193 -0.002411  0.009530)
104:   3075.84   0.000761    3.85  0.000077  ( 0.000893 -0.007905  0.003736)
105:   3084.87   0.002304   11.65  0.000233  (-0.003117 -0.007663 -0.012832)
106:   3097.28   0.000404    2.04  0.000041  ( 0.004226 -0.003363  0.003393)
107:   3106.87   0.001979   10.00  0.000199  (-0.011816  0.007127 -0.002889)
108:   3142.95   0.000608    3.07  0.000060  (-0.005123 -0.005276 -0.002518)
109:   3165.89   0.000931    4.70  0.000092  (-0.006786  0.006598  0.001464)
110:   3184.84   0.000789    3.99  0.000077  ( 0.000716  0.004369  0.007595)
111:   3194.82   0.001184    5.98  0.000116  ( 0.003740  0.009563 -0.003197)
112:   3197.68   0.000675    3.41  0.000066  ( 0.006848 -0.004299  0.000720)
113:   3200.41   0.000055    0.28  0.000005  (-0.002305  0.000104 -0.000246)
114:   3208.35   0.002216   11.20  0.000216  ( 0.011866 -0.008411  0.001986)
115:   3212.73   0.000162    0.82  0.000016  (-0.001621 -0.003506  0.000898)
116:   3221.24   0.000954    4.82  0.000092  ( 0.002850  0.003408 -0.008527)
117:   3227.40   0.000371    1.87  0.000036  (-0.004513  0.003873 -0.000693)
118:   3232.79   0.000388    1.96  0.000037  (-0.002497 -0.005002 -0.002498)
119:   3233.00   0.000092    0.46  0.000009  ( 0.002123  0.001284 -0.001643)
120:   3246.10   0.000210    1.06  0.000020  (-0.003985  0.001138  0.001730)
121:   3266.30   0.113905  575.63  0.010883  (-0.089260  0.050839 -0.018183)
122:   3518.90   0.014087   71.19  0.001249  ( 0.005897 -0.033443 -0.009802)

--------------------------
THERMOCHEMISTRY AT 298.15K
--------------------------

Temperature         ... 298.15 K
Pressure            ... 1.00 atm
Total Mass          ... 310.34 AMU

Throughout the following assumptions are being made:
  (1) The electronic state is orbitally nondegenerate
  (2) There are no thermally accessible electronically excited states
  (3) Hindered rotations indicated by low frequency modes are not
      treated as such but are treated as vibrations and this may
      cause some error
  (4) All equations used are the standard statistical mechanics
      equations for an ideal gas
  (5) All vibrations are strictly harmonic

freq.       8.57  E(vib)   ...       0.58
freq.      20.18  E(vib)   ...       0.56
freq.      27.19  E(vib)   ...       0.55
freq.      43.17  E(vib)   ...       0.53
freq.      45.76  E(vib)   ...       0.53
freq.      61.24  E(vib)   ...       0.51
freq.      84.60  E(vib)   ...       0.48
freq.     112.42  E(vib)   ...       0.45
freq.     118.80  E(vib)   ...       0.44
freq.     156.67  E(vib)   ...       0.40
freq.     191.42  E(vib)   ...       0.36
freq.     203.96  E(vib)   ...       0.35
freq.     212.12  E(vib)   ...       0.34
freq.     242.94  E(vib)   ...       0.31
freq.     266.04  E(vib)   ...       0.29
freq.     283.07  E(vib)   ...       0.28
freq.     301.99  E(vib)   ...       0.26
freq.     329.53  E(vib)   ...       0.24
freq.     369.33  E(vib)   ...       0.21
freq.     406.96  E(vib)   ...       0.19
freq.     412.76  E(vib)   ...       0.19
freq.     414.70  E(vib)   ...       0.19
freq.     418.96  E(vib)   ...       0.18
freq.     432.09  E(vib)   ...       0.18
freq.     501.69  E(vib)   ...       0.14
freq.     517.64  E(vib)   ...       0.13
freq.     525.54  E(vib)   ...       0.13
freq.     567.61  E(vib)   ...       0.11
freq.     586.15  E(vib)   ...       0.11
freq.     607.06  E(vib)   ...       0.10
freq.     631.93  E(vib)   ...       0.09
freq.     636.66  E(vib)   ...       0.09
freq.     659.53  E(vib)   ...       0.08
freq.     684.85  E(vib)   ...       0.07
freq.     734.60  E(vib)   ...       0.06
freq.     764.74  E(vib)   ...       0.06
freq.     769.17  E(vib)   ...       0.06
freq.     780.51  E(vib)   ...       0.05
freq.     815.67  E(vib)   ...       0.05
freq.     826.38  E(vib)   ...       0.04
freq.     843.69  E(vib)   ...       0.04
freq.     849.64  E(vib)   ...       0.04
freq.     867.42  E(vib)   ...       0.04
freq.     872.65  E(vib)   ...       0.04
freq.     886.96  E(vib)   ...       0.04
freq.     939.51  E(vib)   ...       0.03
freq.     968.26  E(vib)   ...       0.03
freq.     973.46  E(vib)   ...       0.03
freq.     997.37  E(vib)   ...       0.02
freq.    1014.85  E(vib)   ...       0.02
freq.    1025.72  E(vib)   ...       0.02
freq.    1028.52  E(vib)   ...       0.02
freq.    1031.43  E(vib)   ...       0.02
freq.    1039.99  E(vib)   ...       0.02
freq.    1051.70  E(vib)   ...       0.02
freq.    1053.43  E(vib)   ...       0.02
freq.    1067.36  E(vib)   ...       0.02
freq.    1076.88  E(vib)   ...       0.02
freq.    1098.58  E(vib)   ...       0.02
freq.    1108.37  E(vib)   ...       0.02
freq.    1127.72  E(vib)   ...       0.01
freq.    1147.83  E(vib)   ...       0.01
freq.    1156.83  E(vib)   ...       0.01
freq.    1185.80  E(vib)   ...       0.01
freq.    1186.42  E(vib)   ...       0.01
freq.    1191.48  E(vib)   ...       0.01
freq.    1209.34  E(vib)   ...       0.01
freq.    1215.11  E(vib)   ...       0.01
freq.    1218.09  E(vib)   ...       0.01
freq.    1233.23  E(vib)   ...       0.01
freq.    1270.09  E(vib)   ...       0.01
freq.    1285.59  E(vib)   ...       0.01
freq.    1314.48  E(vib)   ...       0.01
freq.    1327.20  E(vib)   ...       0.01
freq.    1339.93  E(vib)   ...       0.01
freq.    1348.09  E(vib)   ...       0.01
freq.    1355.37  E(vib)   ...       0.01
freq.    1361.47  E(vib)   ...       0.01
freq.    1367.80  E(vib)   ...       0.01
freq.    1386.90  E(vib)   ...       0.00
freq.    1397.82  E(vib)   ...       0.00
freq.    1418.16  E(vib)   ...       0.00
freq.    1428.02  E(vib)   ...       0.00
freq.    1468.78  E(vib)   ...       0.00
freq.    1474.56  E(vib)   ...       0.00
freq.    1481.15  E(vib)   ...       0.00
freq.    1485.80  E(vib)   ...       0.00
freq.    1504.81  E(vib)   ...       0.00
freq.    1505.57  E(vib)   ...       0.00
freq.    1512.56  E(vib)   ...       0.00
freq.    1513.91  E(vib)   ...       0.00
freq.    1552.24  E(vib)   ...       0.00
freq.    1574.48  E(vib)   ...       0.00
freq.    1669.92  E(vib)   ...       0.00
freq.    1678.40  E(vib)   ...       0.00
freq.    1682.25  E(vib)   ...       0.00
freq.    1688.93  E(vib)   ...       0.00
freq.    1703.93  E(vib)   ...       0.00
freq.    3075.84  E(vib)   ...       0.00
freq.    3084.87  E(vib)   ...       0.00
freq.    3097.28  E(vib)   ...       0.00
freq.    3106.87  E(vib)   ...       0.00
freq.    3142.95  E(vib)   ...       0.00
freq.    3165.89  E(vib)   ...       0.00
freq.    3184.84  E(vib)   ...       0.00
freq.    3194.82  E(vib)   ...       0.00
freq.    3197.68  E(vib)   ...       0.00
freq.    3200.41  E(vib)   ...       0.00
freq.    3208.35  E(vib)   ...       0.00
freq.    3212.73  E(vib)   ...       0.00
freq.    3221.24  E(vib)   ...       0.00
freq.    3227.40  E(vib)   ...       0.00
freq.    3232.79  E(vib)   ...       0.00
freq.    3233.00  E(vib)   ...       0.00
freq.    3246.10  E(vib)   ...       0.00
freq.    3266.30  E(vib)   ...       0.00
freq.    3518.90  E(vib)   ...       0.00

------------
INNER ENERGY
------------

The inner energy is: U= E(el) + E(ZPE) + E(vib) + E(rot) + E(trans)
    E(el)   - is the total energy from the electronic structure calculation
              = E(kin-el) + E(nuc-el) + E(el-el) + E(nuc-nuc)
    E(ZPE)  - the the zero temperature vibrational energy from the frequency calculation
    E(vib)  - the the finite temperature correction to E(ZPE) due to population
              of excited vibrational states
    E(rot)  - is the rotational thermal energy
    E(trans)- is the translational thermal energy

Summary of contributions to the inner energy U:
Electronic energy                ...  -1088.68540041 Eh
Zero point energy                ...      0.34026324 Eh     213.52 kcal/mol
Thermal vibrational correction   ...      0.01704479 Eh      10.70 kcal/mol
Thermal rotational correction    ...      0.00141627 Eh       0.89 kcal/mol
Thermal translational correction ...      0.00141627 Eh       0.89 kcal/mol
-----------------------------------------------------------------------
Total thermal energy                  -1088.32525984 Eh

Summary of corrections to the electronic energy:
(perhaps to be used in another calculation)
Total thermal correction                  0.01987733 Eh      12.47 kcal/mol

Rotational constants in cm-1:     0.015059     0.004654     0.004033

                             ****ORCA TERMINATED NORMALLY****
TOTAL RUN TIME: 0 days 9 hours 20 minutes 48 seconds 649 msec
