                         Program Version 5.0.3 -  RELEASE  -
|  1> ! wB97X-D3 TightOpt Freq def2-TZVPP def2/J RIJCOSX TightSCF defgrid3 CHELPG
|  2> %maxcore 3200
|  3>
|  4> %pal nprocs 8
|  5> end
|  6>
|  7> %chelpg
|  8> grid 0.1
|  9> rmax 3.0
| 10> end
| 11>
| 12>
| 13> *xyz 1 1
| 14>  C    -2.7033128224    4.4465156995    1.1017398110
| 15>  N    -2.3967353704    3.2994148472    0.2333762945
| 16>  C    -3.5890496337    2.5569156494    -0.2541362051
| 17>  C    -3.1731467893    1.1820464726    -0.7714680923
| 18>  C    -2.5924378208    0.3123452881    0.3560796943
| 19>  C    -2.3275399088    -1.1358764394    0.0029467886
| 20>  C    -1.8102532912    -1.9510624320    1.0054904903
| 21>  C    -1.5269614908    -3.2802728628    0.7556338253
| 22>  C    -1.7682884807    -3.8151050264    -0.4986318395
| 23>  C    -2.2932980018    -3.0133966215    -1.4965066853
| 24>  C    -2.5692693857    -1.6782813143    -1.2523096018
| 25>  O    -1.4305033789    0.9556272084    0.9385561119
| 26>  C    -0.1456784890    0.5924806533    0.5680623223
| 27>  C    0.8251120134    0.7623084670    1.5506460354
| 28>  C    2.1471677307    0.4800179094    1.2741682707
| 29>  C    2.4983007908    0.0196753771    0.0118578638
| 30>  C    1.5334280519    -0.1439286748    -0.9703700923
| 31>  C    0.2091120464    0.1491525735    -0.6982584617
| 32>  C    3.9428025158    -0.2558884664    -0.3123943132
| 33>  F    4.0860162502    -1.2284262459    -1.2197599102
| 34>  F    4.5387751734    0.8380425236    -0.8258983542
| 35>  F    4.6528351305    -0.6087290862    0.7633839461
| 36>  H    -3.3363097053    5.1607316738    0.5773005414
| 37>  H    -1.7842121809    4.9446490917    1.4025212934
| 38>  H    -3.2236833508    4.1040277587    1.9937498307
| 39>  H    -1.8271519300    2.5602212625    0.7397199985
| 40>  H    -4.0885750581    3.1345135714    -1.0343988599
| 41>  H    -4.2781686533    2.4419105240    0.5853984804
| 42>  H    -2.4530113420    1.2918483858    -1.5840755829
| 43>  H    -4.0592106635    0.6851466953    -1.1645232771
| 44>  H    -3.3102860792    0.3221833855    1.1899977617
| 45>  H    -1.6270805978    -1.5374844811    1.9867436640
| 46>  H    -1.1237721140    -3.8981191584    1.5423867744
| 47>  H    -1.5516561270    -4.8528896018    -0.6962205253
| 48>  H    -2.4890343208    -3.4244609070    -2.4745833056
| 49>  H    -2.9748506025    -1.0779433093    -2.0521201838
| 50>  H    0.5290199993    1.1069433164    2.5287812141
| 51>  H    2.9006498845    0.6023150053    2.0360291336
| 52>  H    1.8138776317    -0.5012223116    -1.9486491079
| 53>  H    -0.5268978224    0.0061690731    -1.4712825963
| 54>  H    -1.8407425411    3.6143747459    -0.5680281219
| 55> *
| 56>
| 57>
| 58>                          ****END OF INPUT****
 Total Charge           Charge          ....    1
 Multiplicity           Mult            ....    1
 Number of Electrons    NEL             ....  162
Dispersion correction           -0.020458895
FINAL SINGLE POINT ENERGY     -1088.672954372191
Dispersion correction            ... done
Dispersion correction           -0.020049256
FINAL SINGLE POINT ENERGY     -1088.674564869423
Dispersion correction            ... done
Dispersion correction           -0.020261997
FINAL SINGLE POINT ENERGY     -1088.675751925688
Dispersion correction            ... done
FINAL SINGLE POINT ENERGY     -1088.675283692078
FINAL SINGLE POINT ENERGY     -1088.676141397454
FINAL SINGLE POINT ENERGY     -1088.676192648679
FINAL SINGLE POINT ENERGY     -1088.676270877037
FINAL SINGLE POINT ENERGY     -1088.676284659544
FINAL SINGLE POINT ENERGY     -1088.676292406871
FINAL SINGLE POINT ENERGY     -1088.676339683886
FINAL SINGLE POINT ENERGY     -1088.676734287003
FINAL SINGLE POINT ENERGY     -1088.676681849534
FINAL SINGLE POINT ENERGY     -1088.676730583178
FINAL SINGLE POINT ENERGY     -1088.676733346221
FINAL SINGLE POINT ENERGY     -1088.676731790481
FINAL SINGLE POINT ENERGY     -1088.676728926148
FINAL SINGLE POINT ENERGY     -1088.676730169475
Dispersion correction           -0.020430219
FINAL SINGLE POINT ENERGY     -1088.676731465093
Dispersion correction            ... done
Dispersion correction           -0.020434180
FINAL SINGLE POINT ENERGY     -1088.676732463615
Dispersion correction            ... done
                    ***********************HURRAY********************

CARTESIAN COORDINATES (ANGSTROEM)
---------------------------------
  C     -2.107658    4.420078    0.926508
  N     -1.950842    3.051539    0.374685
  C     -3.202010    2.461800   -0.204178
  C     -2.982758    1.041733   -0.702375
  C     -2.660588    0.044621    0.412258
  C     -2.532197   -1.404740   -0.008036
  C     -2.063354   -2.322517    0.928066
  C     -1.941419   -3.660586    0.598460
  C     -2.296608   -4.101471   -0.668735
  C     -2.775491   -3.196794   -1.600622
  C     -2.892168   -1.852954   -1.272680
  O     -1.536480    0.500648    1.195413
  C     -0.236926    0.442427    0.744523
  C      0.699171    0.941672    1.644037
  C      2.037481    0.988630    1.298944
  C      2.447382    0.535354    0.054791
  C      1.512917    0.030587   -0.834665
  C      0.168005   -0.018806   -0.502840
  C      3.895405    0.600391   -0.359926
  F      4.302113   -0.554878   -0.897334
  F      4.085898    1.554214   -1.286468
  F      4.698202    0.877987    0.670269
  H     -2.445765    5.086230    0.136911
  H     -1.150196    4.757191    1.314423
  H     -2.842200    4.391335    1.726883
  H     -1.632137    2.386564    1.092325
  H     -3.524537    3.119833   -1.009787
  H     -3.950708    2.496919    0.587948
  H     -2.221020    1.031284   -1.485026
  H     -3.915044    0.734907   -1.177119
  H     -3.469256    0.104947    1.145910
  H     -1.782432   -1.985781    1.918389
  H     -1.570560   -4.362600    1.333561
  H     -2.202187   -5.148040   -0.926317
  H     -3.059178   -3.532784   -2.589271
  H     -3.264394   -1.168974   -2.024696
  H      0.369832    1.260242    2.625313
  H      2.762988    1.366683    2.005773
  H      1.832485   -0.341106   -1.799585
  H     -0.530084   -0.453048   -1.200872
  H     -1.217700    3.043754   -0.333903

 Multiplicity           Mult            ....    1
 Number of Electrons    NEL             ....  162
 Basis Dimension        Dim             ....  948

ORBITAL ENERGIES
----------------

  NO   OCC          E(Eh)            E(eV)
   0   2.0000     -24.901051      -677.5920
   1   2.0000     -24.897416      -677.4931
   2   2.0000     -24.896312      -677.4631
   3   2.0000     -19.410141      -528.1768
   4   2.0000     -14.708009      -400.2253
   5   2.0000     -10.615850      -288.8720
   6   2.0000     -10.502539      -285.7886
   7   2.0000     -10.494192      -285.5615
   8   2.0000     -10.489268      -285.4275
   9   2.0000     -10.478274      -285.1283
  10   2.0000     -10.445070      -284.2248
  11   2.0000     -10.411474      -283.3106
  12   2.0000     -10.410949      -283.2963
  13   2.0000     -10.410396      -283.2813
  14   2.0000     -10.408587      -283.2321
  15   2.0000     -10.407055      -283.1904
  16   2.0000     -10.406466      -283.1743
  17   2.0000     -10.392668      -282.7989
  18   2.0000     -10.387299      -282.6528
  19   2.0000     -10.384190      -282.5682
  20   2.0000     -10.382731      -282.5285
  21   2.0000     -10.380951      -282.4800
  22   2.0000      -1.518656       -41.3247
  23   2.0000      -1.428356       -38.8676
  24   2.0000      -1.423702       -38.7409
  25   2.0000      -1.331052       -36.2198
  26   2.0000      -1.293356       -35.1940
  27   2.0000      -1.116526       -30.3822
  28   2.0000      -1.097995       -29.8780
  29   2.0000      -1.077160       -29.3110
  30   2.0000      -1.028031       -27.9741
  31   2.0000      -1.005378       -27.3577
  32   2.0000      -0.997659       -27.1477
  33   2.0000      -0.987888       -26.8818
  34   2.0000      -0.972903       -26.4740
  35   2.0000      -0.949439       -25.8356
  36   2.0000      -0.921214       -25.0675
  37   2.0000      -0.886871       -24.1330
  38   2.0000      -0.871962       -23.7273
  39   2.0000      -0.858045       -23.3486
  40   2.0000      -0.840472       -22.8704
  41   2.0000      -0.824587       -22.4382
  42   2.0000      -0.808292       -21.9947
  43   2.0000      -0.788465       -21.4552
  44   2.0000      -0.784731       -21.3536
  45   2.0000      -0.783729       -21.3263
  46   2.0000      -0.782995       -21.3064
  47   2.0000      -0.774846       -21.0846
  48   2.0000      -0.752347       -20.4724
  49   2.0000      -0.741982       -20.1903
  50   2.0000      -0.724219       -19.7070
  51   2.0000      -0.698596       -19.0098
  52   2.0000      -0.691652       -18.8208
  53   2.0000      -0.687058       -18.6958
  54   2.0000      -0.679568       -18.4920
  55   2.0000      -0.676534       -18.4094
  56   2.0000      -0.668262       -18.1843
  57   2.0000      -0.664741       -18.0885
  58   2.0000      -0.659382       -17.9427
  59   2.0000      -0.657101       -17.8806
  60   2.0000      -0.653302       -17.7772
  61   2.0000      -0.649457       -17.6726
  62   2.0000      -0.644229       -17.5304
  63   2.0000      -0.635442       -17.2913
  64   2.0000      -0.627056       -17.0630
  65   2.0000      -0.623163       -16.9571
  66   2.0000      -0.619714       -16.8633
  67   2.0000      -0.612165       -16.6579
  68   2.0000      -0.608466       -16.5572
  69   2.0000      -0.595930       -16.2161
  70   2.0000      -0.591971       -16.1084
  71   2.0000      -0.578421       -15.7396
  72   2.0000      -0.565391       -15.3851
  73   2.0000      -0.560788       -15.2598
  74   2.0000      -0.558443       -15.1960
  75   2.0000      -0.539333       -14.6760
  76   2.0000      -0.537940       -14.6381
  77   2.0000      -0.474126       -12.9016
  78   2.0000      -0.450802       -12.2669
  79   2.0000      -0.447797       -12.1852
  80   2.0000      -0.444648       -12.0995
  81   0.0000      -0.072903        -1.9838
  82   0.0000      -0.065911        -1.7935
  83   0.0000      -0.058988        -1.6051
  84   0.0000      -0.053281        -1.4498
  85   0.0000      -0.043488        -1.1834

MULLIKEN ATOMIC CHARGES
-----------------------
   0 C :   -0.164472
   1 N :    0.080777
   2 C :   -0.164720
   3 C :   -0.220533
   4 C :    0.321184
   5 C :   -0.033211
   6 C :   -0.186632
   7 C :   -0.122574
   8 C :   -0.103480
   9 C :   -0.113370
  10 C :   -0.223981
  11 O :   -0.331317
  12 C :    0.118114
  13 C :   -0.224882
  14 C :   -0.093344
  15 C :   -0.052708
  16 C :   -0.210729
  17 C :   -0.072458
  18 C :    0.553272
  19 F :   -0.161447
  20 F :   -0.166965
  21 F :   -0.163710
  22 H :    0.136681
  23 H :    0.144839
  24 H :    0.137163
  25 H :    0.204390
  26 H :    0.146484
  27 H :    0.141424
  28 H :    0.118765
  29 H :    0.121312
  30 H :    0.121644
  31 H :    0.129500
  32 H :    0.144609
  33 H :    0.147314
  34 H :    0.143615
  35 H :    0.120605
  36 H :    0.155132
  37 H :    0.153506
  38 H :    0.140300
  39 H :    0.152086
  40 H :    0.177819
Sum of atomic charges:    1.0000000

LOEWDIN ATOMIC CHARGES
----------------------
   0 C :    0.076630
   1 N :    0.524332
   2 C :    0.018669
   3 C :   -0.014799
   4 C :   -0.136796
   5 C :   -0.092491
   6 C :    0.008181
   7 C :    0.008345
   8 C :    0.010451
   9 C :    0.002659
  10 C :   -0.014705
  11 O :    0.292843
  12 C :   -0.221627
  13 C :   -0.021458
  14 C :    0.027792
  15 C :   -0.092411
  16 C :    0.033009
  17 C :   -0.014338
  18 C :   -0.640662
  19 F :    0.212854
  20 F :    0.198527
  21 F :    0.217097
  22 H :    0.029028
  23 H :    0.029012
  24 H :    0.029859
  25 H :    0.012539
  26 H :    0.035861
  27 H :    0.038230
  28 H :    0.031095
  29 H :    0.049245
  30 H :    0.044429
  31 H :    0.029492
  32 H :    0.029918
  33 H :    0.029883
  34 H :    0.028569
  35 H :    0.019731
  36 H :    0.028553
  37 H :    0.036399
  38 H :    0.040471
  39 H :    0.025959
  40 H :    0.049626

  Mayer bond orders larger than 0.100000
B(  0-C ,  1-N ) :   0.8992 B(  0-C , 22-H ) :   0.9736 B(  0-C , 23-H ) :   0.9709
B(  0-C , 24-H ) :   0.9771 B(  1-N ,  2-C ) :   0.8761 B(  1-N , 25-H ) :   0.9066
B(  1-N , 40-H ) :   0.9495 B(  2-C ,  3-C ) :   0.9478 B(  2-C , 26-H ) :   0.9957
B(  2-C , 27-H ) :   1.0000 B(  3-C ,  4-C ) :   0.8603 B(  3-C , 28-H ) :   1.0149
B(  3-C , 29-H ) :   0.9946 B(  4-C ,  5-C ) :   0.9561 B(  4-C , 11-O ) :   0.8678
B(  4-C , 30-H ) :   0.9517 B(  5-C ,  6-C ) :   1.3820 B(  5-C , 10-C ) :   1.3210
B(  6-C ,  7-C ) :   1.4897 B(  6-C , 31-H ) :   0.9812 B(  7-C ,  8-C ) :   1.4189
B(  7-C , 32-H ) :   0.9690 B(  8-C ,  9-C ) :   1.4480 B(  8-C , 33-H ) :   0.9658
B(  9-C , 10-C ) :   1.4664 B(  9-C , 34-H ) :   0.9670 B( 10-C , 35-H ) :   0.9869
B( 11-O , 12-C ) :   0.9471 B( 12-C , 13-C ) :   1.3911 B( 12-C , 17-C ) :   1.2872
B( 13-C , 14-C ) :   1.4847 B( 13-C , 36-H ) :   0.9666 B( 14-C , 15-C ) :   1.3873
B( 14-C , 37-H ) :   0.9494 B( 15-C , 16-C ) :   1.4517 B( 15-C , 18-C ) :   0.9900
B( 16-C , 17-C ) :   1.4971 B( 16-C , 38-H ) :   0.9443 B( 17-C , 39-H ) :   0.9641
B( 18-C , 19-F ) :   1.1402 B( 18-C , 20-F ) :   1.1308 B( 18-C , 21-F ) :   1.1373

Dispersion correction           -0.020437055
FINAL SINGLE POINT ENERGY     -1088.676733483417

DIPOLE MOMENT
-------------
                                X             Y             Z
Electronic contribution:     38.55679      -4.79573      -2.20704
Nuclear contribution   :    -43.06866       8.40566       2.56264
                        -----------------------------------------
Total Dipole Moment    :     -4.51187       3.60993       0.35560
                        -----------------------------------------
Magnitude (a.u.)       :      5.78921
Magnitude (Debye)      :     14.71500

Dispersion correction in the Hessian             ... done   (      1.0 sec)

VIBRATIONAL FREQUENCIES
-----------------------

Scaling factor for frequencies =  1.000000000  (already applied!)

   0:         0.00 cm**-1
   1:         0.00 cm**-1
   2:         0.00 cm**-1
   3:         0.00 cm**-1
   4:         0.00 cm**-1
   5:         0.00 cm**-1
   6:         6.43 cm**-1
   7:        15.02 cm**-1
   8:        31.77 cm**-1
   9:        41.97 cm**-1
  10:        57.10 cm**-1
  11:        73.31 cm**-1
  12:        91.91 cm**-1
  13:        98.41 cm**-1
  14:       125.36 cm**-1
  15:       155.19 cm**-1
  16:       167.67 cm**-1
  17:       198.53 cm**-1
  18:       228.41 cm**-1
  19:       235.15 cm**-1
  20:       268.82 cm**-1
  21:       276.63 cm**-1
  22:       299.71 cm**-1
  23:       328.39 cm**-1
  24:       332.33 cm**-1
  25:       404.88 cm**-1
  26:       415.56 cm**-1
  27:       420.00 cm**-1
  28:       426.87 cm**-1
  29:       464.61 cm**-1
  30:       470.94 cm**-1
  31:       488.05 cm**-1
  32:       528.68 cm**-1
  33:       574.93 cm**-1
  34:       582.24 cm**-1
  35:       604.76 cm**-1
  36:       613.37 cm**-1
  37:       636.83 cm**-1
  38:       649.51 cm**-1
  39:       689.98 cm**-1
  40:       727.38 cm**-1
  41:       741.96 cm**-1
  42:       768.10 cm**-1
  43:       774.26 cm**-1
  44:       810.32 cm**-1
  45:       831.37 cm**-1
  46:       852.40 cm**-1
  47:       860.69 cm**-1
  48:       878.48 cm**-1
  49:       880.33 cm**-1
  50:       886.07 cm**-1
  51:       937.06 cm**-1
  52:       954.04 cm**-1
  53:       967.51 cm**-1
  54:      1004.20 cm**-1
  55:      1022.45 cm**-1
  56:      1026.16 cm**-1
  57:      1027.95 cm**-1
  58:      1034.80 cm**-1
  59:      1039.04 cm**-1
  60:      1051.76 cm**-1
  61:      1055.24 cm**-1
  62:      1070.90 cm**-1
  63:      1074.50 cm**-1
  64:      1089.37 cm**-1
  65:      1109.63 cm**-1
  66:      1129.19 cm**-1
  67:      1146.67 cm**-1
  68:      1164.10 cm**-1
  69:      1179.52 cm**-1
  70:      1184.92 cm**-1
  71:      1191.89 cm**-1
  72:      1210.32 cm**-1
  73:      1218.34 cm**-1
  74:      1221.58 cm**-1
  75:      1243.42 cm**-1
  76:      1251.57 cm**-1
  77:      1293.90 cm**-1
  78:      1305.30 cm**-1
  79:      1330.03 cm**-1
  80:      1330.45 cm**-1
  81:      1347.70 cm**-1
  82:      1353.28 cm**-1
  83:      1354.85 cm**-1
  84:      1370.06 cm**-1
  85:      1387.52 cm**-1
  86:      1409.60 cm**-1
  87:      1420.82 cm**-1
  88:      1428.99 cm**-1
  89:      1455.66 cm**-1
  90:      1472.09 cm**-1
  91:      1477.86 cm**-1
  92:      1486.98 cm**-1
  93:      1504.75 cm**-1
  94:      1505.96 cm**-1
  95:      1507.55 cm**-1
  96:      1514.74 cm**-1
  97:      1554.86 cm**-1
  98:      1571.73 cm**-1
  99:      1669.98 cm**-1
 100:      1670.50 cm**-1
 101:      1682.57 cm**-1
 102:      1690.27 cm**-1
 103:      1700.50 cm**-1
 104:      3068.25 cm**-1
 105:      3087.15 cm**-1
 106:      3098.00 cm**-1
 107:      3099.27 cm**-1
 108:      3140.36 cm**-1
 109:      3159.04 cm**-1
 110:      3199.47 cm**-1
 111:      3201.89 cm**-1
 112:      3202.50 cm**-1
 113:      3204.85 cm**-1
 114:      3208.35 cm**-1
 115:      3215.22 cm**-1
 116:      3221.53 cm**-1
 117:      3223.77 cm**-1
 118:      3233.35 cm**-1
 119:      3237.52 cm**-1
 120:      3257.48 cm**-1
 121:      3340.25 cm**-1
 122:      3501.56 cm**-1

IR SPECTRUM
-----------

 Mode   freq       eps      Int      T**2         TX        TY        TZ
       cm**-1   L/(mol*cm) km/mol    a.u.
----------------------------------------------------------------------------
  6:      6.43   0.000068    0.34  0.003306  (-0.023811  0.028387  0.043974)
  7:     15.02   0.000433    2.19  0.009001  ( 0.083979 -0.043675  0.006404)
  8:     31.77   0.000602    3.04  0.005911  (-0.067419  0.003887  0.036752)
  9:     41.97   0.000031    0.16  0.000228  (-0.005552  0.011885 -0.007507)
 10:     57.10   0.000050    0.25  0.000272  (-0.016196 -0.003130 -0.000247)
 11:     73.31   0.000486    2.46  0.002070  (-0.044004  0.008913 -0.007326)
 12:     91.91   0.000758    3.83  0.002574  (-0.044340  0.022888 -0.009193)
 13:     98.41   0.000704    3.56  0.002233  ( 0.010159 -0.035693 -0.029253)
 14:    125.36   0.000360    1.82  0.000896  (-0.015592 -0.001797  0.025481)
 15:    155.19   0.001292    6.53  0.002597  (-0.004168  0.048175  0.016097)
 16:    167.67   0.002167   10.95  0.004033  ( 0.002478  0.061027 -0.017395)
 17:    198.53   0.000590    2.98  0.000928  ( 0.005585 -0.028902 -0.007815)
 18:    228.41   0.000406    2.05  0.000555  (-0.020357 -0.001506 -0.011757)
 19:    235.15   0.001096    5.54  0.001454  (-0.005027 -0.035926  0.011742)
 20:    268.82   0.000198    1.00  0.000230  ( 0.004292  0.001702  0.014454)
 21:    276.63   0.000754    3.81  0.000851  ( 0.021941 -0.018051 -0.006591)
 22:    299.71   0.000023    0.12  0.000024  ( 0.002285 -0.004326 -0.000122)
 23:    328.39   0.003487   17.62  0.003314  ( 0.014531 -0.054268  0.012544)
 24:    332.33   0.000060    0.30  0.000056  ( 0.005836  0.004246 -0.002081)
 25:    404.88   0.000676    3.41  0.000521  (-0.006011  0.017663  0.013139)
 26:    415.56   0.000038    0.19  0.000029  (-0.002656 -0.004645  0.000297)
 27:    420.00   0.000104    0.53  0.000077  (-0.001180  0.000853 -0.008677)
 28:    426.87   0.000228    1.15  0.000167  ( 0.001957 -0.012472 -0.002714)
 29:    464.61   0.003108   15.71  0.002088  ( 0.023681 -0.039046 -0.001543)
 30:    470.94   0.000759    3.84  0.000503  ( 0.015318  0.008951 -0.013727)
 31:    488.05   0.001236    6.25  0.000790  ( 0.015075  0.022987 -0.005898)
 32:    528.68   0.000116    0.59  0.000069  (-0.005277  0.001632 -0.006184)
 33:    574.93   0.000406    2.05  0.000221  ( 0.012066 -0.006503 -0.005717)
 34:    582.24   0.000849    4.29  0.000455  (-0.019843 -0.000838  0.007785)
 35:    604.76   0.002134   10.78  0.001101  ( 0.031587  0.002006 -0.009962)
 36:    613.37   0.002409   12.18  0.001226  (-0.005572  0.031397 -0.014457)
 37:    636.83   0.000076    0.39  0.000037  ( 0.004816 -0.000712  0.003703)
 38:    649.51   0.000405    2.05  0.000194  (-0.003865 -0.011400 -0.007040)
 39:    689.98   0.003334   16.85  0.001508  (-0.036717  0.006074  0.011079)
 40:    727.38   0.008736   44.15  0.003748  (-0.057433 -0.009928  0.018730)
 41:    741.96   0.002528   12.77  0.001063  (-0.027965 -0.016558  0.002646)
 42:    768.10   0.000376    1.90  0.000153  (-0.006275  0.010643  0.000292)
 43:    774.26   0.006536   33.03  0.002634  (-0.044078 -0.019691  0.017425)
 44:    810.32   0.001696    8.57  0.000653  (-0.023661  0.008461  0.004643)
 45:    831.37   0.002617   13.23  0.000982  ( 0.008265  0.007836 -0.029201)
 46:    852.40   0.000928    4.69  0.000340  ( 0.016891  0.005133  0.005286)
 47:    860.69   0.000306    1.55  0.000111  ( 0.000953  0.007516 -0.007328)
 48:    878.48   0.001208    6.10  0.000429  (-0.000769 -0.020479  0.003000)
 49:    880.33   0.002350   11.87  0.000833  (-0.003012  0.025051 -0.014008)
 50:    886.07   0.011755   59.40  0.004140  (-0.007118  0.060056 -0.021966)
 51:    937.06   0.001420    7.18  0.000473  (-0.001328 -0.021318 -0.004088)
 52:    954.04   0.002736   13.83  0.000895  (-0.024693  0.016884  0.000334)
 53:    967.51   0.001893    9.56  0.000610  (-0.018671 -0.016179 -0.000152)
 54:   1004.20   0.000310    1.57  0.000096  ( 0.004170  0.006518 -0.006039)
 55:   1022.45   0.000234    1.18  0.000071  (-0.006193 -0.005736  0.000316)
 56:   1026.16   0.000499    2.52  0.000152  (-0.007514 -0.006997 -0.006797)
 57:   1027.95   0.003295   16.65  0.001000  (-0.023050 -0.020490 -0.007020)
 58:   1034.80   0.000610    3.08  0.000184  (-0.011169 -0.003745 -0.006716)
 59:   1039.04   0.005000   25.27  0.001502  (-0.038531 -0.002616  0.003174)
 60:   1051.76   0.003089   15.61  0.000917  ( 0.027221  0.013087  0.002067)
 61:   1055.24   0.007425   37.52  0.002196  ( 0.041866  0.020696  0.003835)
 62:   1070.90   0.000828    4.18  0.000241  (-0.014870 -0.000935 -0.004388)
 63:   1074.50   0.013274   67.08  0.003855  ( 0.049575  0.029422  0.023062)
 64:   1089.37   0.005885   29.74  0.001686  (-0.040333 -0.006461 -0.004174)
 65:   1109.63   0.016920   85.51  0.004758  (-0.061799 -0.000984  0.030631)
 66:   1129.19   0.000638    3.23  0.000176  ( 0.000230 -0.012329  0.004940)
 67:   1146.67   0.006446   32.57  0.001754  ( 0.000801 -0.011848 -0.040165)
 68:   1164.10   0.000113    0.57  0.000030  (-0.002140  0.004967  0.001021)
 69:   1179.52   0.002333   11.79  0.000617  (-0.023820  0.006347  0.003077)
 70:   1184.92   0.048681  246.01  0.012821  (-0.013391  0.099749 -0.051881)
 71:   1191.89   0.000043    0.22  0.000011  (-0.001429  0.002399  0.001873)
 72:   1210.32   0.018729   94.65  0.004829  (-0.067364 -0.008030 -0.015056)
 73:   1218.34   0.031188  157.61  0.007988  (-0.000536  0.045967  0.076650)
 74:   1221.58   0.001076    5.44  0.000275  (-0.013080 -0.010158 -0.000697)
 75:   1243.42   0.006202   31.34  0.001557  ( 0.037247 -0.012631 -0.003124)
 76:   1251.57   0.024915  125.91  0.006212  (-0.076437 -0.018672 -0.004583)
 77:   1293.90   0.010438   52.75  0.002517  ( 0.040163  0.029688  0.004789)
 78:   1305.30   0.003434   17.36  0.000821  ( 0.003734 -0.018540 -0.021527)
 79:   1330.03   0.001364    6.89  0.000320  ( 0.000326 -0.009843 -0.014931)
 80:   1330.45   0.007140   36.08  0.001675  ( 0.038427  0.013027  0.005325)
 81:   1347.70   0.001886    9.53  0.000437  ( 0.007823 -0.008329 -0.017496)
 82:   1353.28   0.003444   17.40  0.000794  (-0.028165  0.000054 -0.000900)
 83:   1354.85   0.068812  347.75  0.015849  ( 0.124369  0.004149 -0.019094)
 84:   1370.06   0.000577    2.91  0.000131  ( 0.004940  0.007780  0.006813)
 85:   1387.52   0.012216   61.74  0.002748  (-0.015362  0.049975  0.003746)
 86:   1409.60   0.001555    7.86  0.000344  ( 0.017058 -0.006936  0.002251)
 87:   1420.82   0.001411    7.13  0.000310  ( 0.011747  0.008698 -0.009811)
 88:   1428.99   0.000685    3.46  0.000150  ( 0.006073 -0.006324  0.008523)
 89:   1455.66   0.012121   61.25  0.002598  ( 0.008346  0.049047  0.011101)
 90:   1472.09   0.001193    6.03  0.000253  ( 0.002387  0.002218 -0.015562)
 91:   1477.86   0.001628    8.23  0.000344  (-0.002567 -0.017938 -0.003920)
 92:   1486.98   0.001920    9.70  0.000403  (-0.005022 -0.004054 -0.019005)
 93:   1504.75   0.005241   26.49  0.001087  ( 0.012217  0.023635  0.019471)
 94:   1505.96   0.002987   15.09  0.000619  ( 0.005883 -0.017489  0.016687)
 95:   1507.55   0.003265   16.50  0.000676  (-0.007665 -0.015173  0.019670)
 96:   1514.74   0.003881   19.61  0.000799  ( 0.027363 -0.006926 -0.001651)
 97:   1554.86   0.001630    8.24  0.000327  ( 0.000515 -0.017723 -0.003574)
 98:   1571.73   0.012080   61.05  0.002398  (-0.046815 -0.014375 -0.000294)
 99:   1669.98   0.005500   27.79  0.001028  (-0.016432  0.016740  0.021852)
100:   1670.50   0.000349    1.77  0.000065  ( 0.004803 -0.006438  0.000878)
101:   1682.57   0.020393  103.06  0.003782  (-0.046425  0.039903 -0.005896)
102:   1690.27   0.000133    0.67  0.000025  ( 0.003556  0.003190 -0.001303)
103:   1700.50   0.015984   80.77  0.002933  ( 0.053603  0.007735  0.000258)
104:   3068.25   0.001468    7.42  0.000149  ( 0.010790 -0.004355 -0.003737)
105:   3087.15   0.000983    4.97  0.000099  (-0.007897  0.000174  0.006076)
106:   3098.00   0.000517    2.61  0.000052  (-0.005187  0.004879  0.001179)
107:   3099.27   0.001119    5.66  0.000113  ( 0.005708 -0.008900 -0.000964)
108:   3140.36   0.000672    3.40  0.000067  ( 0.007767 -0.000234 -0.002531)
109:   3159.04   0.000664    3.36  0.000066  ( 0.000516  0.006274 -0.005097)
110:   3199.47   0.000138    0.70  0.000013  (-0.001242  0.003272 -0.001112)
111:   3201.89   0.000006    0.03  0.000001  ( 0.000690  0.000255 -0.000183)
112:   3202.50   0.000727    3.67  0.000071  ( 0.000506 -0.008362 -0.000823)
113:   3204.85   0.000414    2.09  0.000040  (-0.002332  0.004708 -0.003567)
114:   3208.35   0.000486    2.46  0.000047  (-0.006020  0.003172  0.001006)
115:   3215.22   0.000482    2.44  0.000047  (-0.001451  0.006685  0.000154)
116:   3221.53   0.000025    0.13  0.000002  ( 0.000605  0.000794  0.001201)
117:   3223.77   0.001280    6.47  0.000124  (-0.004069  0.003474 -0.009762)
118:   3233.35   0.000440    2.23  0.000043  ( 0.001185  0.006124  0.001895)
119:   3237.52   0.000185    0.94  0.000018  ( 0.004141 -0.000071  0.000834)
120:   3257.48   0.000196    0.99  0.000019  ( 0.002471 -0.003549 -0.000254)
121:   3340.25   0.068303  345.17  0.006381  ( 0.037433 -0.068933  0.015109)
122:   3501.56   0.007548   38.15  0.000673  (-0.015747 -0.009723  0.018171)

--------------------------
THERMOCHEMISTRY AT 298.15K
--------------------------

Temperature         ... 298.15 K
Pressure            ... 1.00 atm
Total Mass          ... 310.34 AMU

Throughout the following assumptions are being made:
  (1) The electronic state is orbitally nondegenerate
  (2) There are no thermally accessible electronically excited states
  (3) Hindered rotations indicated by low frequency modes are not
      treated as such but are treated as vibrations and this may
      cause some error
  (4) All equations used are the standard statistical mechanics
      equations for an ideal gas
  (5) All vibrations are strictly harmonic

freq.       6.43  E(vib)   ...       0.58
freq.      15.02  E(vib)   ...       0.57
freq.      31.77  E(vib)   ...       0.55
freq.      41.97  E(vib)   ...       0.53
freq.      57.10  E(vib)   ...       0.51
freq.      73.31  E(vib)   ...       0.49
freq.      91.91  E(vib)   ...       0.47
freq.      98.41  E(vib)   ...       0.46
freq.     125.36  E(vib)   ...       0.43
freq.     155.19  E(vib)   ...       0.40
freq.     167.67  E(vib)   ...       0.38
freq.     198.53  E(vib)   ...       0.35
freq.     228.41  E(vib)   ...       0.32
freq.     235.15  E(vib)   ...       0.32
freq.     268.82  E(vib)   ...       0.29
freq.     276.63  E(vib)   ...       0.28
freq.     299.71  E(vib)   ...       0.26
freq.     328.39  E(vib)   ...       0.24
freq.     332.33  E(vib)   ...       0.24
freq.     404.88  E(vib)   ...       0.19
freq.     415.56  E(vib)   ...       0.18
freq.     420.00  E(vib)   ...       0.18
freq.     426.87  E(vib)   ...       0.18
freq.     464.61  E(vib)   ...       0.16
freq.     470.94  E(vib)   ...       0.15
freq.     488.05  E(vib)   ...       0.15
freq.     528.68  E(vib)   ...       0.13
freq.     574.93  E(vib)   ...       0.11
freq.     582.24  E(vib)   ...       0.11
freq.     604.76  E(vib)   ...       0.10
freq.     613.37  E(vib)   ...       0.10
freq.     636.83  E(vib)   ...       0.09
freq.     649.51  E(vib)   ...       0.08
freq.     689.98  E(vib)   ...       0.07
freq.     727.38  E(vib)   ...       0.06
freq.     741.96  E(vib)   ...       0.06
freq.     768.10  E(vib)   ...       0.06
freq.     774.26  E(vib)   ...       0.05
freq.     810.32  E(vib)   ...       0.05
freq.     831.37  E(vib)   ...       0.04
freq.     852.40  E(vib)   ...       0.04
freq.     860.69  E(vib)   ...       0.04
freq.     878.48  E(vib)   ...       0.04
freq.     880.33  E(vib)   ...       0.04
freq.     886.07  E(vib)   ...       0.04
freq.     937.06  E(vib)   ...       0.03
freq.     954.04  E(vib)   ...       0.03
freq.     967.51  E(vib)   ...       0.03
freq.    1004.20  E(vib)   ...       0.02
freq.    1022.45  E(vib)   ...       0.02
freq.    1026.16  E(vib)   ...       0.02
freq.    1027.95  E(vib)   ...       0.02
freq.    1034.80  E(vib)   ...       0.02
freq.    1039.04  E(vib)   ...       0.02
freq.    1051.76  E(vib)   ...       0.02
freq.    1055.24  E(vib)   ...       0.02
freq.    1070.90  E(vib)   ...       0.02
freq.    1074.50  E(vib)   ...       0.02
freq.    1089.37  E(vib)   ...       0.02
freq.    1109.63  E(vib)   ...       0.02
freq.    1129.19  E(vib)   ...       0.01
freq.    1146.67  E(vib)   ...       0.01
freq.    1164.10  E(vib)   ...       0.01
freq.    1179.52  E(vib)   ...       0.01
freq.    1184.92  E(vib)   ...       0.01
freq.    1191.89  E(vib)   ...       0.01
freq.    1210.32  E(vib)   ...       0.01
freq.    1218.34  E(vib)   ...       0.01
freq.    1221.58  E(vib)   ...       0.01
freq.    1243.42  E(vib)   ...       0.01
freq.    1251.57  E(vib)   ...       0.01
freq.    1293.90  E(vib)   ...       0.01
freq.    1305.30  E(vib)   ...       0.01
freq.    1330.03  E(vib)   ...       0.01
freq.    1330.45  E(vib)   ...       0.01
freq.    1347.70  E(vib)   ...       0.01
freq.    1353.28  E(vib)   ...       0.01
freq.    1354.85  E(vib)   ...       0.01
freq.    1370.06  E(vib)   ...       0.01
freq.    1387.52  E(vib)   ...       0.00
freq.    1409.60  E(vib)   ...       0.00
freq.    1420.82  E(vib)   ...       0.00
freq.    1428.99  E(vib)   ...       0.00
freq.    1455.66  E(vib)   ...       0.00
freq.    1472.09  E(vib)   ...       0.00
freq.    1477.86  E(vib)   ...       0.00
freq.    1486.98  E(vib)   ...       0.00
freq.    1504.75  E(vib)   ...       0.00
freq.    1505.96  E(vib)   ...       0.00
freq.    1507.55  E(vib)   ...       0.00
freq.    1514.74  E(vib)   ...       0.00
freq.    1554.86  E(vib)   ...       0.00
freq.    1571.73  E(vib)   ...       0.00
freq.    1669.98  E(vib)   ...       0.00
freq.    1670.50  E(vib)   ...       0.00
freq.    1682.57  E(vib)   ...       0.00
freq.    1690.27  E(vib)   ...       0.00
freq.    1700.50  E(vib)   ...       0.00
freq.    3068.25  E(vib)   ...       0.00
freq.    3087.15  E(vib)   ...       0.00
freq.    3098.00  E(vib)   ...       0.00
freq.    3099.27  E(vib)   ...       0.00
freq.    3140.36  E(vib)   ...       0.00
freq.    3159.04  E(vib)   ...       0.00
freq.    3199.47  E(vib)   ...       0.00
freq.    3201.89  E(vib)   ...       0.00
freq.    3202.50  E(vib)   ...       0.00
freq.    3204.85  E(vib)   ...       0.00
freq.    3208.35  E(vib)   ...       0.00
freq.    3215.22  E(vib)   ...       0.00
freq.    3221.53  E(vib)   ...       0.00
freq.    3223.77  E(vib)   ...       0.00
freq.    3233.35  E(vib)   ...       0.00
freq.    3237.52  E(vib)   ...       0.00
freq.    3257.48  E(vib)   ...       0.00
freq.    3340.25  E(vib)   ...       0.00
freq.    3501.56  E(vib)   ...       0.00

------------
INNER ENERGY
------------

The inner energy is: U= E(el) + E(ZPE) + E(vib) + E(rot) + E(trans)
    E(el)   - is the total energy from the electronic structure calculation
              = E(kin-el) + E(nuc-el) + E(el-el) + E(nuc-nuc)
    E(ZPE)  - the the zero temperature vibrational energy from the frequency calculation
    E(vib)  - the the finite temperature correction to E(ZPE) due to population
              of excited vibrational states
    E(rot)  - is the rotational thermal energy
    E(trans)- is the translational thermal energy

Summary of contributions to the inner energy U:
Electronic energy                ...  -1088.67673348 Eh
Zero point energy                ...      0.34017392 Eh     213.46 kcal/mol
Thermal vibrational correction   ...      0.01711209 Eh      10.74 kcal/mol
Thermal rotational correction    ...      0.00141627 Eh       0.89 kcal/mol
Thermal translational correction ...      0.00141627 Eh       0.89 kcal/mol
-----------------------------------------------------------------------
Total thermal energy                  -1088.31661494 Eh

Summary of corrections to the electronic energy:
(perhaps to be used in another calculation)
Total thermal correction                  0.01994463 Eh      12.52 kcal/mol

Rotational constants in cm-1:     0.011044     0.006054     0.004431

                             ****ORCA TERMINATED NORMALLY****
TOTAL RUN TIME: 0 days 9 hours 25 minutes 17 seconds 475 msec
