                         Program Version 5.0.3 -  RELEASE  -
|  1> ! wB97X-D3 TightOpt Freq def2-TZVPP def2/J RIJCOSX TightSCF defgrid3 CHELPG
|  2> %maxcore 3200
|  3>
|  4> %pal nprocs 8
|  5> end
|  6>
|  7> %chelpg
|  8> grid 0.1
|  9> rmax 3.0
| 10> end
| 11>
| 12>
| 13> *xyz 1 1
| 14>  C    -1.5277291986    3.9784710344    -0.1050372519
| 15>  N    -2.3865151964    3.2178642603    0.8190474675
| 16>  C    -3.5683508538    2.5776346783    0.1756884675
| 17>  C    -3.1798536769    1.2510584168    -0.4735463264
| 18>  C    -2.6293870621    0.2556883703    0.5607835186
| 19>  C    -2.4180147329    -1.1619403270    0.0704054378
| 20>  C    -1.8796637896    -2.0736226307    0.9736948718
| 21>  C    -1.6481879453    -3.3832769378    0.5982648870
| 22>  C    -1.9629754263    -3.8014815425    -0.6836588544
| 23>  C    -2.5084684272    -2.9030509908    -1.5833949142
| 24>  C    -2.7330679284    -1.5873468813    -1.2135128319
| 25>  O    -1.4440763768    0.7964206460    1.1944679782
| 26>  C    -0.1730862667    0.5085441422    0.7264156276
| 27>  C    0.8442789375    0.6659624045    1.6641496959
| 28>  C    2.1590435031    0.4556652049    1.3035765294
| 29>  C    2.4588253165    0.0819839795    -0.0001066410
| 30>  C    1.4480311342    -0.0706965466    -0.9364777621
| 31>  C    0.1292896364    0.1483783891    -0.5790538750
| 32>  C    3.8926289205    -0.1106403882    -0.4177937811
| 33>  F    4.0262854169    -1.0392124158    -1.3712938106
| 34>  F    4.4043970388    1.0306387824    -0.9202236317
| 35>  F    4.6816626338    -0.4682018415    0.5993313928
| 36>  H    -0.6754290031    4.3895266835    0.4316080425
| 37>  H    -2.0877068483    4.7958117894    -0.5566845147
| 38>  H    -1.1564708656    3.3267059981    -0.8922454472
| 39>  H    -2.6869229333    3.8326683899    1.5795271261
| 40>  H    -3.9898802685    3.2600633848    -0.5651136931
| 41>  H    -4.3209573790    2.3954566414    0.9455556468
| 42>  H    -2.4542463548    1.4158564981    -1.2702081070
| 43>  H    -4.0785570486    0.8244279562    -0.9171350634
| 44>  H    -3.3416449137    0.2107986947    1.3985433435
| 45>  H    -1.6391863236    -1.7512134403    1.9765166550
| 46>  H    -1.2279229409    -4.0768851053    1.3092886959
| 47>  H    -1.7872100125    -4.8236676273    -0.9789429672
| 48>  H    -2.7608490936    -3.2227025014    -2.5824135370
| 49>  H    -3.1559189525    -0.9099204113    -1.9393965477
| 50>  H    0.5890407695    0.9415436613    2.6752109994
| 51>  H    2.9474082152    0.5677333589    2.0308765601
| 52>  H    1.6877073457    -0.3632496874    -1.9465971410
| 53>  H    -0.6404636819    0.0091158842    -1.3189168517
| 54>  H    -1.8386100132    2.3984380481    1.2160802983
| 55> *
| 56>
| 57>
| 58>                          ****END OF INPUT****
 Total Charge           Charge          ....    1
 Multiplicity           Mult            ....    1
 Number of Electrons    NEL             ....  162
Dispersion correction           -0.021184367
FINAL SINGLE POINT ENERGY     -1088.673099702103
Dispersion correction            ... done
Dispersion correction           -0.020991992
FINAL SINGLE POINT ENERGY     -1088.674415345007
Dispersion correction            ... done
Dispersion correction           -0.021095995
FINAL SINGLE POINT ENERGY     -1088.675943519289
Dispersion correction            ... done
FINAL SINGLE POINT ENERGY     -1088.676076716074
FINAL SINGLE POINT ENERGY     -1088.676137163169
FINAL SINGLE POINT ENERGY     -1088.676333706137
FINAL SINGLE POINT ENERGY     -1088.676420697517
FINAL SINGLE POINT ENERGY     -1088.676483998349
FINAL SINGLE POINT ENERGY     -1088.676636243996
FINAL SINGLE POINT ENERGY     -1088.676740140047
FINAL SINGLE POINT ENERGY     -1088.676936371864
FINAL SINGLE POINT ENERGY     -1088.676974013683
FINAL SINGLE POINT ENERGY     -1088.676993267847
FINAL SINGLE POINT ENERGY     -1088.677001505254
FINAL SINGLE POINT ENERGY     -1088.677007074981
FINAL SINGLE POINT ENERGY     -1088.677009844946
FINAL SINGLE POINT ENERGY     -1088.677012302833
Dispersion correction           -0.021710181
FINAL SINGLE POINT ENERGY     -1088.677013214852
Dispersion correction            ... done
Dispersion correction           -0.021717897
FINAL SINGLE POINT ENERGY     -1088.677012736159
Dispersion correction            ... done
                    ***********************HURRAY********************

CARTESIAN COORDINATES (ANGSTROEM)
---------------------------------
  C     -0.960091    3.589433   -0.126561
  N     -2.000238    3.086348    0.812229
  C     -3.237150    2.528717    0.161233
  C     -3.013390    1.154654   -0.452462
  C     -2.673894    0.076354    0.577841
  C     -2.599105   -1.344943    0.060765
  C     -2.134853   -2.333894    0.923781
  C     -2.060778   -3.650794    0.506334
  C     -2.459747   -3.998591   -0.776756
  C     -2.933519   -3.022443   -1.636391
  C     -3.002160   -1.699830   -1.220339
  O     -1.507545    0.457148    1.340718
  C     -0.228813    0.403757    0.832917
  C      0.748153    0.861210    1.711210
  C      2.067532    0.928904    1.305998
  C      2.419205    0.535308    0.023253
  C      1.446498    0.061587   -0.840921
  C      0.118326   -0.008998   -0.447365
  C      3.845142    0.659848   -0.449045
  F      4.184932   -0.341246   -1.266053
  F      4.021721    1.805670   -1.130100
  F      4.707141    0.668324    0.570974
  H     -0.108139    3.938587    0.450518
  H     -1.379094    4.402552   -0.713813
  H     -0.642215    2.776748   -0.772755
  H     -2.267360    3.835693    1.445389
  H     -3.558990    3.251420   -0.587051
  H     -3.997348    2.480151    0.941293
  H     -2.268234    1.198714   -1.247755
  H     -3.955058    0.885409   -0.931703
  H     -3.449751    0.103892    1.348147
  H     -1.820065   -2.069507    1.925882
  H     -1.693446   -4.409174    1.185042
  H     -2.403522   -5.028719   -1.102690
  H     -3.251102   -3.285914   -2.636648
  H     -3.371210   -0.958082   -1.917135
  H      0.464784    1.136344    2.719587
  H      2.825590    1.277060    1.994149
  H      1.720923   -0.267826   -1.834358
  H     -0.612563   -0.412330   -1.130269
  H     -1.613322    2.317806    1.380188

 Multiplicity           Mult            ....    1
 Number of Electrons    NEL             ....  162
 Basis Dimension        Dim             ....  948

ORBITAL ENERGIES
----------------

  NO   OCC          E(Eh)            E(eV)
   0   2.0000     -24.901499      -677.6042
   1   2.0000     -24.900188      -677.5686
   2   2.0000     -24.897397      -677.4926
   3   2.0000     -19.411498      -528.2137
   4   2.0000     -14.707359      -400.2076
   5   2.0000     -10.617205      -288.9088
   6   2.0000     -10.502684      -285.7926
   7   2.0000     -10.490048      -285.4487
   8   2.0000     -10.489647      -285.4378
   9   2.0000     -10.479160      -285.1524
  10   2.0000     -10.444773      -284.2167
  11   2.0000     -10.412614      -283.3416
  12   2.0000     -10.412224      -283.3310
  13   2.0000     -10.411662      -283.3157
  14   2.0000     -10.408926      -283.2413
  15   2.0000     -10.408063      -283.2178
  16   2.0000     -10.407214      -283.1947
  17   2.0000     -10.393469      -282.8207
  18   2.0000     -10.388150      -282.6759
  19   2.0000     -10.385014      -282.5906
  20   2.0000     -10.383552      -282.5508
  21   2.0000     -10.381771      -282.5024
  22   2.0000      -1.520047       -41.3626
  23   2.0000      -1.429743       -38.9053
  24   2.0000      -1.425206       -38.7818
  25   2.0000      -1.331821       -36.2407
  26   2.0000      -1.291181       -35.1348
  27   2.0000      -1.117631       -30.4123
  28   2.0000      -1.098599       -29.8944
  29   2.0000      -1.076093       -29.2820
  30   2.0000      -1.026924       -27.9440
  31   2.0000      -1.009015       -27.4567
  32   2.0000      -0.999083       -27.1864
  33   2.0000      -0.989243       -26.9187
  34   2.0000      -0.973521       -26.4908
  35   2.0000      -0.946444       -25.7540
  36   2.0000      -0.917855       -24.9761
  37   2.0000      -0.889159       -24.1953
  38   2.0000      -0.866076       -23.5671
  39   2.0000      -0.861118       -23.4322
  40   2.0000      -0.838444       -22.8152
  41   2.0000      -0.824104       -22.4250
  42   2.0000      -0.812700       -22.1147
  43   2.0000      -0.804529       -21.8923
  44   2.0000      -0.787733       -21.4353
  45   2.0000      -0.784873       -21.3575
  46   2.0000      -0.784395       -21.3445
  47   2.0000      -0.760828       -20.7032
  48   2.0000      -0.756853       -20.5950
  49   2.0000      -0.739818       -20.1315
  50   2.0000      -0.723753       -19.6943
  51   2.0000      -0.696430       -18.9508
  52   2.0000      -0.692153       -18.8344
  53   2.0000      -0.682191       -18.5634
  54   2.0000      -0.680029       -18.5045
  55   2.0000      -0.678797       -18.4710
  56   2.0000      -0.668171       -18.1819
  57   2.0000      -0.663498       -18.0547
  58   2.0000      -0.661254       -17.9936
  59   2.0000      -0.658215       -17.9109
  60   2.0000      -0.653733       -17.7890
  61   2.0000      -0.650309       -17.6958
  62   2.0000      -0.646362       -17.5884
  63   2.0000      -0.636093       -17.3090
  64   2.0000      -0.625652       -17.0249
  65   2.0000      -0.624564       -16.9953
  66   2.0000      -0.620523       -16.8853
  67   2.0000      -0.613351       -16.6901
  68   2.0000      -0.609528       -16.5861
  69   2.0000      -0.597578       -16.2609
  70   2.0000      -0.592660       -16.1271
  71   2.0000      -0.578953       -15.7541
  72   2.0000      -0.566760       -15.4223
  73   2.0000      -0.561436       -15.2774
  74   2.0000      -0.559830       -15.2338
  75   2.0000      -0.540008       -14.6944
  76   2.0000      -0.538821       -14.6621
  77   2.0000      -0.475316       -12.9340
  78   2.0000      -0.451581       -12.2881
  79   2.0000      -0.448396       -12.2015
  80   2.0000      -0.445547       -12.1240
  81   0.0000      -0.073421        -1.9979
  82   0.0000      -0.065245        -1.7754
  83   0.0000      -0.061120        -1.6632
  84   0.0000      -0.054165        -1.4739
  85   0.0000      -0.044188        -1.2024

MULLIKEN ATOMIC CHARGES
-----------------------
   0 C :   -0.188855
   1 N :    0.093123
   2 C :   -0.161955
   3 C :   -0.238881
   4 C :    0.321397
   5 C :   -0.029433
   6 C :   -0.188658
   7 C :   -0.123033
   8 C :   -0.102651
   9 C :   -0.113690
  10 C :   -0.227755
  11 O :   -0.326987
  12 C :    0.166611
  13 C :   -0.237387
  14 C :   -0.101215
  15 C :   -0.050300
  16 C :   -0.182484
  17 C :   -0.130338
  18 C :    0.549661
  19 F :   -0.161401
  20 F :   -0.167336
  21 F :   -0.162486
  22 H :    0.149648
  23 H :    0.142983
  24 H :    0.145870
  25 H :    0.172143
  26 H :    0.150456
  27 H :    0.149909
  28 H :    0.122033
  29 H :    0.122834
  30 H :    0.121865
  31 H :    0.129517
  32 H :    0.144814
  33 H :    0.147577
  34 H :    0.143885
  35 H :    0.121296
  36 H :    0.151156
  37 H :    0.152133
  38 H :    0.144669
  39 H :    0.154342
  40 H :    0.196921
Sum of atomic charges:    1.0000000

LOEWDIN ATOMIC CHARGES
----------------------
   0 C :    0.077244
   1 N :    0.529409
   2 C :    0.022615
   3 C :   -0.013340
   4 C :   -0.135659
   5 C :   -0.093029
   6 C :    0.008212
   7 C :    0.008544
   8 C :    0.010678
   9 C :    0.002658
  10 C :   -0.014868
  11 O :    0.296770
  12 C :   -0.217407
  13 C :   -0.019704
  14 C :    0.027704
  15 C :   -0.092986
  16 C :    0.030614
  17 C :   -0.013483
  18 C :   -0.640375
  19 F :    0.215588
  20 F :    0.195743
  21 F :    0.216890
  22 H :    0.030052
  23 H :    0.026420
  24 H :    0.027097
  25 H :    0.043274
  26 H :    0.035882
  27 H :    0.036333
  28 H :    0.028929
  29 H :    0.049453
  30 H :    0.044447
  31 H :    0.029648
  32 H :    0.030012
  33 H :    0.029972
  34 H :    0.028640
  35 H :    0.019699
  36 H :    0.028728
  37 H :    0.037479
  38 H :    0.039342
  39 H :    0.026275
  40 H :    0.006498

  Mayer bond orders larger than 0.100000
B(  0-C ,  1-N ) :   0.8863 B(  0-C , 22-H ) :   0.9703 B(  0-C , 23-H ) :   0.9796
B(  0-C , 24-H ) :   0.9648 B(  1-N ,  2-C ) :   0.8573 B(  1-N , 25-H ) :   0.9572
B(  1-N , 40-H ) :   0.9081 B(  2-C ,  3-C ) :   0.9305 B(  2-C , 26-H ) :   1.0179
B(  2-C , 27-H ) :   1.0012 B(  3-C ,  4-C ) :   0.8577 B(  3-C , 28-H ) :   1.0074
B(  3-C , 29-H ) :   0.9980 B(  4-C ,  5-C ) :   0.9463 B(  4-C , 11-O ) :   0.8632
B(  4-C , 30-H ) :   0.9580 B(  5-C ,  6-C ) :   1.3821 B(  5-C , 10-C ) :   1.3186
B(  6-C ,  7-C ) :   1.4898 B(  6-C , 31-H ) :   0.9812 B(  7-C ,  8-C ) :   1.4188
B(  7-C , 32-H ) :   0.9689 B(  8-C ,  9-C ) :   1.4481 B(  8-C , 33-H ) :   0.9657
B(  9-C , 10-C ) :   1.4671 B(  9-C , 34-H ) :   0.9669 B( 10-C , 35-H ) :   0.9881
B( 11-O , 12-C ) :   0.9536 B( 12-C , 13-C ) :   1.3651 B( 12-C , 17-C ) :   1.2828
B( 13-C , 14-C ) :   1.4841 B( 13-C , 36-H ) :   0.9798 B( 14-C , 15-C ) :   1.3937
B( 14-C , 37-H ) :   0.9530 B( 15-C , 16-C ) :   1.4441 B( 15-C , 18-C ) :   0.9921
B( 16-C , 17-C ) :   1.4846 B( 16-C , 38-H ) :   0.9442 B( 17-C , 39-H ) :   0.9784
B( 18-C , 19-F ) :   1.1387 B( 18-C , 20-F ) :   1.1290 B( 18-C , 21-F ) :   1.1374

Dispersion correction           -0.021721911
FINAL SINGLE POINT ENERGY     -1088.677012487143

DIPOLE MOMENT
-------------
                                X             Y             Z
Electronic contribution:     36.34478      -3.15812      -1.43980
Nuclear contribution   :    -40.73471       6.62915       2.17445
                        -----------------------------------------
Total Dipole Moment    :     -4.38993       3.47103       0.73465
                        -----------------------------------------
Magnitude (a.u.)       :      5.64440
Magnitude (Debye)      :     14.34691

Dispersion correction in the Hessian             ... done   (      1.0 sec)

VIBRATIONAL FREQUENCIES
-----------------------

Scaling factor for frequencies =  1.000000000  (already applied!)

   0:         0.00 cm**-1
   1:         0.00 cm**-1
   2:         0.00 cm**-1
   3:         0.00 cm**-1
   4:         0.00 cm**-1
   5:         0.00 cm**-1
   6:         7.02 cm**-1
   7:        18.09 cm**-1
   8:        39.32 cm**-1
   9:        49.20 cm**-1
  10:        63.59 cm**-1
  11:        66.68 cm**-1
  12:        97.89 cm**-1
  13:       118.04 cm**-1
  14:       138.83 cm**-1
  15:       166.15 cm**-1
  16:       173.34 cm**-1
  17:       195.84 cm**-1
  18:       223.77 cm**-1
  19:       255.99 cm**-1
  20:       266.92 cm**-1
  21:       285.76 cm**-1
  22:       320.83 cm**-1
  23:       332.42 cm**-1
  24:       383.86 cm**-1
  25:       405.74 cm**-1
  26:       415.36 cm**-1
  27:       416.08 cm**-1
  28:       429.07 cm**-1
  29:       449.58 cm**-1
  30:       467.17 cm**-1
  31:       489.75 cm**-1
  32:       528.45 cm**-1
  33:       570.50 cm**-1
  34:       582.50 cm**-1
  35:       602.02 cm**-1
  36:       613.79 cm**-1
  37:       636.58 cm**-1
  38:       648.73 cm**-1
  39:       690.28 cm**-1
  40:       727.22 cm**-1
  41:       742.81 cm**-1
  42:       768.20 cm**-1
  43:       773.77 cm**-1
  44:       815.04 cm**-1
  45:       831.67 cm**-1
  46:       836.67 cm**-1
  47:       863.03 cm**-1
  48:       865.13 cm**-1
  49:       880.01 cm**-1
  50:       884.86 cm**-1
  51:       926.26 cm**-1
  52:       961.17 cm**-1
  53:       968.60 cm**-1
  54:      1005.41 cm**-1
  55:      1009.30 cm**-1
  56:      1023.73 cm**-1
  57:      1026.40 cm**-1
  58:      1030.87 cm**-1
  59:      1039.27 cm**-1
  60:      1052.50 cm**-1
  61:      1062.27 cm**-1
  62:      1070.50 cm**-1
  63:      1072.88 cm**-1
  64:      1098.22 cm**-1
  65:      1109.50 cm**-1
  66:      1134.01 cm**-1
  67:      1148.47 cm**-1
  68:      1170.48 cm**-1
  69:      1177.09 cm**-1
  70:      1181.99 cm**-1
  71:      1191.47 cm**-1
  72:      1211.54 cm**-1
  73:      1220.95 cm**-1
  74:      1221.14 cm**-1
  75:      1244.78 cm**-1
  76:      1249.16 cm**-1
  77:      1280.29 cm**-1
  78:      1308.56 cm**-1
  79:      1331.05 cm**-1
  80:      1334.62 cm**-1
  81:      1348.17 cm**-1
  82:      1355.92 cm**-1
  83:      1358.26 cm**-1
  84:      1370.07 cm**-1
  85:      1391.28 cm**-1
  86:      1406.52 cm**-1
  87:      1424.99 cm**-1
  88:      1449.53 cm**-1
  89:      1460.92 cm**-1
  90:      1472.48 cm**-1
  91:      1476.84 cm**-1
  92:      1486.59 cm**-1
  93:      1501.85 cm**-1
  94:      1505.70 cm**-1
  95:      1506.80 cm**-1
  96:      1511.87 cm**-1
  97:      1554.89 cm**-1
  98:      1572.08 cm**-1
  99:      1654.15 cm**-1
 100:      1670.29 cm**-1
 101:      1671.81 cm**-1
 102:      1690.12 cm**-1
 103:      1700.87 cm**-1
 104:      3067.56 cm**-1
 105:      3096.47 cm**-1
 106:      3099.29 cm**-1
 107:      3102.19 cm**-1
 108:      3143.74 cm**-1
 109:      3159.81 cm**-1
 110:      3200.71 cm**-1
 111:      3202.22 cm**-1
 112:      3204.63 cm**-1
 113:      3208.09 cm**-1
 114:      3209.07 cm**-1
 115:      3215.19 cm**-1
 116:      3223.77 cm**-1
 117:      3224.84 cm**-1
 118:      3233.40 cm**-1
 119:      3234.82 cm**-1
 120:      3259.84 cm**-1
 121:      3301.32 cm**-1
 122:      3533.96 cm**-1

IR SPECTRUM
-----------

 Mode   freq       eps      Int      T**2         TX        TY        TZ
       cm**-1   L/(mol*cm) km/mol    a.u.
----------------------------------------------------------------------------
  6:      7.02   0.000063    0.32  0.002789  (-0.011813 -0.007949 -0.050859)
  7:     18.09   0.000643    3.25  0.011085  ( 0.096142 -0.036158 -0.023118)
  8:     39.32   0.000427    2.16  0.003385  ( 0.042642  0.011922 -0.037739)
  9:     49.20   0.000394    1.99  0.002501  (-0.043506  0.001122  0.024633)
 10:     63.59   0.000009    0.04  0.000042  (-0.002724  0.001606 -0.005689)
 11:     66.68   0.000305    1.54  0.001426  ( 0.036833 -0.000803  0.008263)
 12:     97.89   0.000412    2.08  0.001315  ( 0.036146  0.000795  0.002720)
 13:    118.04   0.000467    2.36  0.001234  ( 0.008674 -0.033562  0.005700)
 14:    138.83   0.000989    5.00  0.002224  ( 0.024261  0.040437  0.000342)
 15:    166.15   0.000320    1.62  0.000601  (-0.002262  0.001673 -0.024344)
 16:    173.34   0.001028    5.20  0.001851  (-0.012868  0.041052 -0.000673)
 17:    195.84   0.000159    0.81  0.000254  (-0.002583 -0.013232 -0.008490)
 18:    223.77   0.000305    1.54  0.000425  (-0.019423  0.002468 -0.006430)
 19:    255.99   0.000685    3.46  0.000835  ( 0.001914  0.028400 -0.004966)
 20:    266.92   0.004321   21.84  0.005052  ( 0.036663 -0.060792 -0.003479)
 21:    285.76   0.001686    8.52  0.001841  (-0.008923  0.041148  0.008240)
 22:    320.83   0.002837   14.33  0.002759  (-0.016249  0.049772 -0.004220)
 23:    332.42   0.000716    3.62  0.000672  (-0.001488 -0.025264  0.005618)
 24:    383.86   0.000293    1.48  0.000238  ( 0.007122 -0.013686 -0.000050)
 25:    405.74   0.000657    3.32  0.000505  ( 0.000051 -0.017753 -0.013788)
 26:    415.36   0.000092    0.47  0.000069  ( 0.003396  0.006558 -0.003839)
 27:    416.08   0.000158    0.80  0.000118  ( 0.001994  0.005343 -0.009272)
 28:    429.07   0.000157    0.79  0.000114  (-0.002357  0.008614  0.005839)
 29:    449.58   0.000495    2.50  0.000343  (-0.011680 -0.012139  0.007712)
 30:    467.17   0.003462   17.49  0.002312  ( 0.032127 -0.034829 -0.008194)
 31:    489.75   0.002089   10.56  0.001331  (-0.007145 -0.035011  0.007364)
 32:    528.45   0.000171    0.87  0.000101  ( 0.007467 -0.004127  0.005322)
 33:    570.50   0.000183    0.92  0.000100  (-0.007719  0.005679  0.002863)
 34:    582.50   0.000686    3.47  0.000367  ( 0.017144  0.001471 -0.008450)
 35:    602.02   0.002181   11.02  0.001131  (-0.030202 -0.004751  0.014000)
 36:    613.79   0.002450   12.38  0.001246  ( 0.008013 -0.032066  0.012386)
 37:    636.58   0.000057    0.29  0.000028  ( 0.004018 -0.000492  0.003392)
 38:    648.73   0.000411    2.08  0.000198  ( 0.002290  0.012101  0.006784)
 39:    690.28   0.004079   20.61  0.001844  (-0.039318  0.012756  0.011635)
 40:    727.22   0.008713   44.03  0.003739  ( 0.057390  0.008091 -0.019492)
 41:    742.81   0.003262   16.49  0.001371  (-0.032515 -0.017465  0.002884)
 42:    768.20   0.000732    3.70  0.000297  ( 0.003590 -0.016632  0.002815)
 43:    773.77   0.006906   34.90  0.002785  ( 0.045314  0.021140 -0.016879)
 44:    815.04   0.001241    6.27  0.000475  ( 0.017097 -0.007305 -0.011382)
 45:    831.67   0.001236    6.24  0.000464  ( 0.007775  0.019803  0.003325)
 46:    836.67   0.010426   52.69  0.003889  ( 0.021454 -0.057867  0.008936)
 47:    863.03   0.000273    1.38  0.000099  (-0.007045 -0.001474  0.006837)
 48:    865.13   0.001206    6.10  0.000435  (-0.020210  0.001542  0.004921)
 49:    880.01   0.001740    8.79  0.000617  (-0.003160  0.022003 -0.011084)
 50:    884.86   0.012114   61.22  0.004272  ( 0.005528 -0.062851  0.017071)
 51:    926.26   0.000798    4.03  0.000269  (-0.011729 -0.011310  0.001873)
 52:    961.17   0.001481    7.48  0.000481  (-0.014123 -0.013103 -0.010465)
 53:    968.60   0.000944    4.77  0.000304  (-0.015967 -0.005584  0.004255)
 54:   1005.41   0.000573    2.90  0.000178  (-0.007801 -0.010065  0.003957)
 55:   1009.30   0.003269   16.52  0.001011  (-0.028056 -0.008032 -0.012608)
 56:   1023.73   0.000045    0.23  0.000014  (-0.002859 -0.002309 -0.000298)
 57:   1026.40   0.000082    0.42  0.000025  ( 0.003601  0.001908 -0.002902)
 58:   1030.87   0.000797    4.03  0.000241  (-0.007213 -0.013657 -0.001655)
 59:   1039.27   0.004095   20.70  0.001230  (-0.034463 -0.003749  0.005283)
 60:   1052.50   0.000037    0.19  0.000011  (-0.003250 -0.000426  0.000489)
 61:   1062.27   0.002054   10.38  0.000603  (-0.017701 -0.014623 -0.008724)
 62:   1070.50   0.000730    3.69  0.000213  ( 0.012638 -0.007262 -0.000511)
 63:   1072.88   0.024591  124.27  0.007153  (-0.080676 -0.022060 -0.012546)
 64:   1098.22   0.000435    2.20  0.000124  (-0.004479  0.008820 -0.005070)
 65:   1109.50   0.017624   89.06  0.004957  ( 0.061951  0.011613 -0.031373)
 66:   1134.01   0.000209    1.06  0.000058  ( 0.004862 -0.004132  0.004099)
 67:   1148.47   0.006139   31.03  0.001668  (-0.001440 -0.009738 -0.039639)
 68:   1170.48   0.001065    5.38  0.000284  ( 0.013751  0.009147  0.003345)
 69:   1177.09   0.005226   26.41  0.001385  (-0.036678  0.004466 -0.004492)
 70:   1181.99   0.047965  242.40  0.012663  ( 0.013910 -0.103487  0.041957)
 71:   1191.47   0.000037    0.19  0.000010  (-0.000272  0.002210  0.002190)
 72:   1211.54   0.020491  103.55  0.005278  (-0.069635 -0.007277 -0.019390)
 73:   1220.95   0.028865  145.87  0.007378  (-0.007777 -0.039500 -0.075874)
 74:   1221.14   0.001558    7.87  0.000398  (-0.010038 -0.001386  0.017188)
 75:   1244.78   0.001778    8.98  0.000446  (-0.016934  0.010530  0.006934)
 76:   1249.16   0.022840  115.43  0.005706  ( 0.074447  0.012602  0.002184)
 77:   1280.29   0.015835   80.02  0.003860  (-0.050624 -0.035766 -0.004199)
 78:   1308.56   0.001393    7.04  0.000332  (-0.001235 -0.002254  0.018043)
 79:   1331.05   0.003382   17.09  0.000793  (-0.016559 -0.014926 -0.017200)
 80:   1334.62   0.003337   16.86  0.000780  ( 0.022550  0.016001 -0.003959)
 81:   1348.17   0.006388   32.28  0.001479  (-0.028668  0.009219  0.023913)
 82:   1355.92   0.067819  342.73  0.015609  ( 0.123001  0.008627 -0.020124)
 83:   1358.26   0.002181   11.02  0.000501  ( 0.019445 -0.006896 -0.008689)
 84:   1370.07   0.000267    1.35  0.000061  ( 0.003351 -0.000136  0.007038)
 85:   1391.28   0.003954   19.98  0.000887  ( 0.025415 -0.013369 -0.007885)
 86:   1406.52   0.004363   22.05  0.000968  ( 0.015579 -0.025927 -0.007287)
 87:   1424.99   0.000742    3.75  0.000162  ( 0.002440  0.011462 -0.005010)
 88:   1449.53   0.003334   16.85  0.000718  (-0.003617 -0.026543 -0.000372)
 89:   1460.92   0.002815   14.23  0.000601  ( 0.019392  0.014818 -0.002392)
 90:   1472.48   0.000861    4.35  0.000182  ( 0.000274  0.003344  0.013086)
 91:   1476.84   0.004409   22.28  0.000932  (-0.016392 -0.023061  0.011450)
 92:   1486.59   0.002282   11.53  0.000479  (-0.003182 -0.002651 -0.021491)
 93:   1501.85   0.004341   21.94  0.000902  (-0.020918 -0.011500 -0.018227)
 94:   1505.70   0.001578    7.98  0.000327  ( 0.007681 -0.002344  0.016205)
 95:   1506.80   0.002524   12.75  0.000523  ( 0.018593 -0.000586  0.013290)
 96:   1511.87   0.007130   36.03  0.001472  ( 0.017158 -0.034172 -0.003081)
 97:   1554.89   0.001474    7.45  0.000296  (-0.000018 -0.016677 -0.004215)
 98:   1572.08   0.014469   73.12  0.002872  ( 0.052820  0.008403 -0.003392)
 99:   1654.15   0.013840   69.94  0.002611  (-0.015810  0.028200  0.039570)
100:   1670.29   0.001000    5.06  0.000187  (-0.004098  0.001698  0.012931)
101:   1671.81   0.000547    2.76  0.000102  ( 0.002219 -0.000069 -0.009854)
102:   1690.12   0.000124    0.62  0.000023  (-0.003091 -0.003352  0.001426)
103:   1700.87   0.016389   82.82  0.003007  ( 0.054084  0.008409  0.003337)
104:   3067.56   0.001782    9.01  0.000181  ( 0.011600 -0.003717 -0.005737)
105:   3096.47   0.000415    2.10  0.000042  ( 0.005147 -0.001125 -0.003753)
106:   3099.29   0.001442    7.29  0.000145  (-0.008255  0.008577  0.001864)
107:   3102.19   0.000552    2.79  0.000056  ( 0.000746 -0.005630  0.004823)
108:   3143.74   0.000792    4.00  0.000079  (-0.008188  0.000725  0.003320)
109:   3159.81   0.000882    4.46  0.000087  (-0.001114 -0.007923  0.004810)
110:   3200.71   0.000517    2.61  0.000050  (-0.003269  0.006267 -0.000661)
111:   3202.22   0.000640    3.23  0.000062  (-0.000086 -0.007699 -0.001748)
112:   3204.63   0.000461    2.33  0.000045  ( 0.002067 -0.005598  0.003047)
113:   3208.09   0.000498    2.52  0.000048  ( 0.005910 -0.003484 -0.001166)
114:   3209.07   0.000042    0.21  0.000004  ( 0.000724  0.000360  0.001841)
115:   3215.19   0.000455    2.30  0.000044  (-0.001153  0.006515  0.000623)
116:   3223.77   0.001228    6.21  0.000119  ( 0.004020 -0.004006  0.009311)
117:   3224.84   0.000020    0.10  0.000002  (-0.000508  0.000732  0.001068)
118:   3233.40   0.000443    2.24  0.000043  ( 0.001363  0.006020  0.002167)
119:   3234.82   0.000175    0.89  0.000017  ( 0.004031 -0.000431  0.000705)
120:   3259.84   0.000242    1.22  0.000023  ( 0.000352 -0.004680 -0.001047)
121:   3301.32   0.067661  341.93  0.006396  ( 0.033893 -0.070577  0.016307)
122:   3533.96   0.020081  101.48  0.001773  (-0.013257  0.035053  0.019205)

--------------------------
THERMOCHEMISTRY AT 298.15K
--------------------------

Temperature         ... 298.15 K
Pressure            ... 1.00 atm
Total Mass          ... 310.34 AMU

Throughout the following assumptions are being made:
  (1) The electronic state is orbitally nondegenerate
  (2) There are no thermally accessible electronically excited states
  (3) Hindered rotations indicated by low frequency modes are not
      treated as such but are treated as vibrations and this may
      cause some error
  (4) All equations used are the standard statistical mechanics
      equations for an ideal gas
  (5) All vibrations are strictly harmonic

freq.       7.02  E(vib)   ...       0.58
freq.      18.09  E(vib)   ...       0.57
freq.      39.32  E(vib)   ...       0.54
freq.      49.20  E(vib)   ...       0.52
freq.      63.59  E(vib)   ...       0.51
freq.      66.68  E(vib)   ...       0.50
freq.      97.89  E(vib)   ...       0.46
freq.     118.04  E(vib)   ...       0.44
freq.     138.83  E(vib)   ...       0.42
freq.     166.15  E(vib)   ...       0.39
freq.     173.34  E(vib)   ...       0.38
freq.     195.84  E(vib)   ...       0.36
freq.     223.77  E(vib)   ...       0.33
freq.     255.99  E(vib)   ...       0.30
freq.     266.92  E(vib)   ...       0.29
freq.     285.76  E(vib)   ...       0.28
freq.     320.83  E(vib)   ...       0.25
freq.     332.42  E(vib)   ...       0.24
freq.     383.86  E(vib)   ...       0.20
freq.     405.74  E(vib)   ...       0.19
freq.     415.36  E(vib)   ...       0.18
freq.     416.08  E(vib)   ...       0.18
freq.     429.07  E(vib)   ...       0.18
freq.     449.58  E(vib)   ...       0.17
freq.     467.17  E(vib)   ...       0.16
freq.     489.75  E(vib)   ...       0.15
freq.     528.45  E(vib)   ...       0.13
freq.     570.50  E(vib)   ...       0.11
freq.     582.50  E(vib)   ...       0.11
freq.     602.02  E(vib)   ...       0.10
freq.     613.79  E(vib)   ...       0.10
freq.     636.58  E(vib)   ...       0.09
freq.     648.73  E(vib)   ...       0.08
freq.     690.28  E(vib)   ...       0.07
freq.     727.22  E(vib)   ...       0.06
freq.     742.81  E(vib)   ...       0.06
freq.     768.20  E(vib)   ...       0.06
freq.     773.77  E(vib)   ...       0.05
freq.     815.04  E(vib)   ...       0.05
freq.     831.67  E(vib)   ...       0.04
freq.     836.67  E(vib)   ...       0.04
freq.     863.03  E(vib)   ...       0.04
freq.     865.13  E(vib)   ...       0.04
freq.     880.01  E(vib)   ...       0.04
freq.     884.86  E(vib)   ...       0.04
freq.     926.26  E(vib)   ...       0.03
freq.     961.17  E(vib)   ...       0.03
freq.     968.60  E(vib)   ...       0.03
freq.    1005.41  E(vib)   ...       0.02
freq.    1009.30  E(vib)   ...       0.02
freq.    1023.73  E(vib)   ...       0.02
freq.    1026.40  E(vib)   ...       0.02
freq.    1030.87  E(vib)   ...       0.02
freq.    1039.27  E(vib)   ...       0.02
freq.    1052.50  E(vib)   ...       0.02
freq.    1062.27  E(vib)   ...       0.02
freq.    1070.50  E(vib)   ...       0.02
freq.    1072.88  E(vib)   ...       0.02
freq.    1098.22  E(vib)   ...       0.02
freq.    1109.50  E(vib)   ...       0.02
freq.    1134.01  E(vib)   ...       0.01
freq.    1148.47  E(vib)   ...       0.01
freq.    1170.48  E(vib)   ...       0.01
freq.    1177.09  E(vib)   ...       0.01
freq.    1181.99  E(vib)   ...       0.01
freq.    1191.47  E(vib)   ...       0.01
freq.    1211.54  E(vib)   ...       0.01
freq.    1220.95  E(vib)   ...       0.01
freq.    1221.14  E(vib)   ...       0.01
freq.    1244.78  E(vib)   ...       0.01
freq.    1249.16  E(vib)   ...       0.01
freq.    1280.29  E(vib)   ...       0.01
freq.    1308.56  E(vib)   ...       0.01
freq.    1331.05  E(vib)   ...       0.01
freq.    1334.62  E(vib)   ...       0.01
freq.    1348.17  E(vib)   ...       0.01
freq.    1355.92  E(vib)   ...       0.01
freq.    1358.26  E(vib)   ...       0.01
freq.    1370.07  E(vib)   ...       0.01
freq.    1391.28  E(vib)   ...       0.00
freq.    1406.52  E(vib)   ...       0.00
freq.    1424.99  E(vib)   ...       0.00
freq.    1449.53  E(vib)   ...       0.00
freq.    1460.92  E(vib)   ...       0.00
freq.    1472.48  E(vib)   ...       0.00
freq.    1476.84  E(vib)   ...       0.00
freq.    1486.59  E(vib)   ...       0.00
freq.    1501.85  E(vib)   ...       0.00
freq.    1505.70  E(vib)   ...       0.00
freq.    1506.80  E(vib)   ...       0.00
freq.    1511.87  E(vib)   ...       0.00
freq.    1554.89  E(vib)   ...       0.00
freq.    1572.08  E(vib)   ...       0.00
freq.    1654.15  E(vib)   ...       0.00
freq.    1670.29  E(vib)   ...       0.00
freq.    1671.81  E(vib)   ...       0.00
freq.    1690.12  E(vib)   ...       0.00
freq.    1700.87  E(vib)   ...       0.00
freq.    3067.56  E(vib)   ...       0.00
freq.    3096.47  E(vib)   ...       0.00
freq.    3099.29  E(vib)   ...       0.00
freq.    3102.19  E(vib)   ...       0.00
freq.    3143.74  E(vib)   ...       0.00
freq.    3159.81  E(vib)   ...       0.00
freq.    3200.71  E(vib)   ...       0.00
freq.    3202.22  E(vib)   ...       0.00
freq.    3204.63  E(vib)   ...       0.00
freq.    3208.09  E(vib)   ...       0.00
freq.    3209.07  E(vib)   ...       0.00
freq.    3215.19  E(vib)   ...       0.00
freq.    3223.77  E(vib)   ...       0.00
freq.    3224.84  E(vib)   ...       0.00
freq.    3233.40  E(vib)   ...       0.00
freq.    3234.82  E(vib)   ...       0.00
freq.    3259.84  E(vib)   ...       0.00
freq.    3301.32  E(vib)   ...       0.00
freq.    3533.96  E(vib)   ...       0.00

------------
INNER ENERGY
------------

The inner energy is: U= E(el) + E(ZPE) + E(vib) + E(rot) + E(trans)
    E(el)   - is the total energy from the electronic structure calculation
              = E(kin-el) + E(nuc-el) + E(el-el) + E(nuc-nuc)
    E(ZPE)  - the the zero temperature vibrational energy from the frequency calculation
    E(vib)  - the the finite temperature correction to E(ZPE) due to population
              of excited vibrational states
    E(rot)  - is the rotational thermal energy
    E(trans)- is the translational thermal energy

Summary of contributions to the inner energy U:
Electronic energy                ...  -1088.67701249 Eh
Zero point energy                ...      0.34050175 Eh     213.67 kcal/mol
Thermal vibrational correction   ...      0.01688272 Eh      10.59 kcal/mol
Thermal rotational correction    ...      0.00141627 Eh       0.89 kcal/mol
Thermal translational correction ...      0.00141627 Eh       0.89 kcal/mol
-----------------------------------------------------------------------
Total thermal energy                  -1088.31679547 Eh

Summary of corrections to the electronic energy:
(perhaps to be used in another calculation)
Total thermal correction                  0.01971527 Eh      12.37 kcal/mol

Rotational constants in cm-1:     0.012341     0.005986     0.004619

                             ****ORCA TERMINATED NORMALLY****
TOTAL RUN TIME: 0 days 5 hours 36 minutes 55 seconds 356 msec
