                         Program Version 5.0.3 -  RELEASE  -
|  1> ! wB97X-D3 TightOpt Freq def2-TZVPP def2/J RIJCOSX TightSCF defgrid3 CHELPG
|  2> %maxcore 3200
|  3>
|  4> %pal nprocs 8
|  5> end
|  6>
|  7> %chelpg
|  8> grid 0.1
|  9> rmax 3.0
| 10> end
| 11>
| 12>
| 13> *xyz 1 1
| 14>  C    -4.5590378282    2.4302052239    -1.2702106638
| 15>  N    -4.1256911402    1.4953897968    -0.2182632260
| 16>  C    -3.0813654166    2.0521816983    0.6800800940
| 17>  C    -2.5501965372    0.9987575550    1.6453106380
| 18>  C    -1.7028479988    -0.0776246306    0.9213376787
| 19>  C    -2.5811058556    -1.0078589073    0.1019634581
| 20>  C    -3.3174168943    -2.0010550688    0.7370954199
| 21>  C    -4.1425067936    -2.8346818577    0.0020074041
| 22>  C    -4.2444306739    -2.6844418151    -1.3728396002
| 23>  C    -3.5099209741    -1.7032401810    -2.0156693185
| 24>  C    -2.6854150821    -0.8589982614    -1.2831667836
| 25>  O    -0.7771080693    0.5879598128    0.0835280940
| 26>  C    0.5781972708    0.4135735506    0.1987115185
| 27>  C    1.2373679101    -0.2359588484    1.2334117681
| 28>  C    2.6190589894    -0.3179264102    1.2255491185
| 29>  C    3.3472642635    0.2538671240    0.1951452932
| 30>  C    2.6936765896    0.9092838005    -0.8416206879
| 31>  C    1.3184743689    0.9877424745    -0.8359181640
| 32>  C    4.8463346146    0.1362531050    0.1718443340
| 33>  F    5.4331272879    1.2151434116    -0.3642342529
| 34>  F    5.3696024203    -0.0263358388    1.3933529408
| 35>  F    5.2488159890    -0.9190635241    -0.5604163837
| 36>  H    -4.9621742150    3.3391739523    -0.8271922434
| 37>  H    -5.3252737974    1.9692897912    -1.8897334390
| 38>  H    -3.7102372743    2.6936370517    -1.8978952831
| 39>  H    -3.7186254056    0.6194743257    -0.6499186933
| 40>  H    -3.5001372481    2.8981378859    1.2281640235
| 41>  H    -2.2542283078    2.4049725262    0.0602671020
| 42>  H    -3.3616445017    0.5180716783    2.1932270199
| 43>  H    -1.9113917592    1.5090950110    2.3670033893
| 44>  H    -1.1994734826    -0.6768028059    1.6843052876
| 45>  H    -3.2264308906    -2.1367882613    1.8044392579
| 46>  H    -4.6955511543    -3.6140930620    0.5016977220
| 47>  H    -4.8777148140    -3.3455790666    -1.9423501588
| 48>  H    -3.5622607869    -1.6001126758    -3.0883865272
| 49>  H    -2.0514210375    -0.1449489473    -1.7911365363
| 50>  H    0.7095143066    -0.6848046569    2.0597134659
| 51>  H    3.1287491849    -0.8229782444    2.0310100291
| 52>  H    3.2615821769    1.3554137462    -1.6426787245
| 53>  H    0.7958070571    1.4938086202    -1.6317720346
| 54>  H    -4.9340594692    1.2106573891    0.3451691250
| 55> *
| 56>
| 57>
| 58>                          ****END OF INPUT****
 Total Charge           Charge          ....    1
 Multiplicity           Mult            ....    1
 Number of Electrons    NEL             ....  162
Dispersion correction           -0.019764398
FINAL SINGLE POINT ENERGY     -1088.673038973600
Dispersion correction            ... done
Dispersion correction           -0.018991885
FINAL SINGLE POINT ENERGY     -1088.673815633486
Dispersion correction            ... done
Dispersion correction           -0.019468154
FINAL SINGLE POINT ENERGY     -1088.677235305413
Dispersion correction            ... done
FINAL SINGLE POINT ENERGY     -1088.677709145636
FINAL SINGLE POINT ENERGY     -1088.678161755044
FINAL SINGLE POINT ENERGY     -1088.678265406692
FINAL SINGLE POINT ENERGY     -1088.678726370108
FINAL SINGLE POINT ENERGY     -1088.678925565840
FINAL SINGLE POINT ENERGY     -1088.680191549218
FINAL SINGLE POINT ENERGY     -1088.681313011989
FINAL SINGLE POINT ENERGY     -1088.682034895133
FINAL SINGLE POINT ENERGY     -1088.682942082485
FINAL SINGLE POINT ENERGY     -1088.683160411760
FINAL SINGLE POINT ENERGY     -1088.683220650320
FINAL SINGLE POINT ENERGY     -1088.683263163780
FINAL SINGLE POINT ENERGY     -1088.683275549743
FINAL SINGLE POINT ENERGY     -1088.683281004335
Dispersion correction           -0.020513648
FINAL SINGLE POINT ENERGY     -1088.683282335297
Dispersion correction            ... done
Dispersion correction           -0.020513094
FINAL SINGLE POINT ENERGY     -1088.683282409242
Dispersion correction            ... done
                    ***********************HURRAY********************

CARTESIAN COORDINATES (ANGSTROEM)
---------------------------------
  C     -5.021434    1.978065   -1.452462
  N     -4.386760    1.312046   -0.286374
  C     -3.423755    2.184523    0.468035
  C     -2.769989    1.462492    1.635812
  C     -1.675769    0.465503    1.233844
  C     -2.227100   -0.660892    0.374510
  C     -3.035758   -1.633863    0.957336
  C     -3.641163   -2.606790    0.176692
  C     -3.441778   -2.621842   -1.197753
  C     -2.620763   -1.669941   -1.783147
  C     -2.013588   -0.692524   -1.001755
  O     -0.701177    1.230805    0.567756
  C      0.565535    0.728183    0.412107
  C      0.955000   -0.538672    0.819298
  C      2.266224   -0.942562    0.610891
  C      3.173924   -0.096500    0.001604
  C      2.772281    1.169726   -0.406776
  C      1.472734    1.583632   -0.201433
  C      4.579486   -0.563065   -0.270188
  F      5.451905    0.451196   -0.243475
  F      4.984796   -1.471643    0.624612
  F      4.674856   -1.133581   -1.482613
  H     -5.558609    2.859266   -1.111561
  H     -5.706125    1.282285   -1.929745
  H     -4.240438    2.266371   -2.150963
  H     -3.873057    0.477672   -0.600239
  H     -3.990146    3.050694    0.806340
  H     -2.675657    2.517582   -0.250509
  H     -3.520673    0.957792    2.248911
  H     -2.313144    2.225197    2.266665
  H     -1.260460    0.047156    2.156152
  H     -3.186443   -1.639444    2.031565
  H     -4.260594   -3.361951    0.642835
  H     -3.907817   -3.385897   -1.805644
  H     -2.435545   -1.694108   -2.849275
  H     -1.355276    0.035272   -1.459815
  H      0.263330   -1.225397    1.285574
  H      2.575720   -1.928403    0.930258
  H      3.481265    1.836770   -0.878123
  H      1.148443    2.570949   -0.501565
  H     -5.102575    0.972693    0.353547

 Multiplicity           Mult            ....    1
 Number of Electrons    NEL             ....  162
 Basis Dimension        Dim             ....  948

ORBITAL ENERGIES
----------------

  NO   OCC          E(Eh)            E(eV)
   0   2.0000     -24.881856      -677.0697
   1   2.0000     -24.881362      -677.0563
   2   2.0000     -24.877190      -676.9428
   3   2.0000     -19.390603      -527.6451
   4   2.0000     -14.709272      -400.2596
   5   2.0000     -10.596923      -288.3569
   6   2.0000     -10.496686      -285.6293
   7   2.0000     -10.494029      -285.5570
   8   2.0000     -10.484609      -285.3007
   9   2.0000     -10.454093      -284.4703
  10   2.0000     -10.442359      -284.1510
  11   2.0000     -10.430949      -283.8406
  12   2.0000     -10.418850      -283.5113
  13   2.0000     -10.418071      -283.4901
  14   2.0000     -10.416481      -283.4469
  15   2.0000     -10.415933      -283.4320
  16   2.0000     -10.411843      -283.3206
  17   2.0000     -10.388786      -282.6933
  18   2.0000     -10.387870      -282.6683
  19   2.0000     -10.387070      -282.6465
  20   2.0000     -10.386925      -282.6426
  21   2.0000     -10.382008      -282.5088
  22   2.0000      -1.500148       -40.8211
  23   2.0000      -1.409910       -38.3656
  24   2.0000      -1.405257       -38.2390
  25   2.0000      -1.318849       -35.8877
  26   2.0000      -1.295040       -35.2398
  27   2.0000      -1.124393       -30.5963
  28   2.0000      -1.094993       -29.7963
  29   2.0000      -1.075570       -29.2678
  30   2.0000      -1.026013       -27.9192
  31   2.0000      -1.002849       -27.2889
  32   2.0000      -1.000007       -27.2116
  33   2.0000      -0.988320       -26.8936
  34   2.0000      -0.976397       -26.5691
  35   2.0000      -0.955117       -25.9901
  36   2.0000      -0.902068       -24.5465
  37   2.0000      -0.882401       -24.0113
  38   2.0000      -0.870801       -23.6957
  39   2.0000      -0.854387       -23.2491
  40   2.0000      -0.844035       -22.9674
  41   2.0000      -0.832137       -22.6436
  42   2.0000      -0.812105       -22.0985
  43   2.0000      -0.781040       -21.2532
  44   2.0000      -0.775766       -21.1097
  45   2.0000      -0.767242       -20.8777
  46   2.0000      -0.764941       -20.8151
  47   2.0000      -0.764261       -20.7966
  48   2.0000      -0.760899       -20.7051
  49   2.0000      -0.748195       -20.3594
  50   2.0000      -0.717575       -19.5262
  51   2.0000      -0.709195       -19.2982
  52   2.0000      -0.688727       -18.7412
  53   2.0000      -0.684484       -18.6258
  54   2.0000      -0.679984       -18.5033
  55   2.0000      -0.675851       -18.3908
  56   2.0000      -0.673280       -18.3209
  57   2.0000      -0.661254       -17.9936
  58   2.0000      -0.655307       -17.8318
  59   2.0000      -0.645997       -17.5785
  60   2.0000      -0.641042       -17.4436
  61   2.0000      -0.638641       -17.3783
  62   2.0000      -0.637013       -17.3340
  63   2.0000      -0.631496       -17.1839
  64   2.0000      -0.625205       -17.0127
  65   2.0000      -0.616099       -16.7649
  66   2.0000      -0.608476       -16.5575
  67   2.0000      -0.605541       -16.4776
  68   2.0000      -0.599025       -16.3003
  69   2.0000      -0.592750       -16.1295
  70   2.0000      -0.580475       -15.7955
  71   2.0000      -0.577893       -15.7253
  72   2.0000      -0.569691       -15.5021
  73   2.0000      -0.567793       -15.4504
  74   2.0000      -0.543795       -14.7974
  75   2.0000      -0.538172       -14.6444
  76   2.0000      -0.535663       -14.5761
  77   2.0000      -0.483874       -13.1669
  78   2.0000      -0.475220       -12.9314
  79   2.0000      -0.448507       -12.2045
  80   2.0000      -0.424852       -11.5608
  81   0.0000      -0.081225        -2.2103
  82   0.0000      -0.080888        -2.2011
  83   0.0000      -0.062176        -1.6919
  84   0.0000      -0.040380        -1.0988
  85   0.0000      -0.036351        -0.9892

MULLIKEN ATOMIC CHARGES
-----------------------
   0 C :   -0.158688
   1 N :    0.081429
   2 C :   -0.162391
   3 C :   -0.174957
   4 C :    0.254840
   5 C :   -0.042298
   6 C :   -0.235009
   7 C :   -0.096745
   8 C :   -0.117039
   9 C :   -0.123410
  10 C :   -0.248932
  11 O :   -0.329369
  12 C :    0.257715
  13 C :   -0.128758
  14 C :   -0.174407
  15 C :   -0.064462
  16 C :   -0.093400
  17 C :   -0.218213
  18 C :    0.544663
  19 F :   -0.167270
  20 F :   -0.167820
  21 F :   -0.165399
  22 H :    0.137044
  23 H :    0.144282
  24 H :    0.137385
  25 H :    0.187199
  26 H :    0.147150
  27 H :    0.153209
  28 H :    0.104235
  29 H :    0.123714
  30 H :    0.131273
  31 H :    0.136764
  32 H :    0.157580
  33 H :    0.157410
  34 H :    0.159260
  35 H :    0.158482
  36 H :    0.116965
  37 H :    0.140999
  38 H :    0.141645
  39 H :    0.123644
  40 H :    0.171681
Sum of atomic charges:    1.0000000

LOEWDIN ATOMIC CHARGES
----------------------
   0 C :    0.076905
   1 N :    0.527541
   2 C :    0.020060
   3 C :   -0.004050
   4 C :   -0.163048
   5 C :   -0.100080
   6 C :   -0.012372
   7 C :    0.005161
   8 C :    0.003465
   9 C :   -0.002935
  10 C :   -0.014247
  11 O :    0.304352
  12 C :   -0.198184
  13 C :   -0.016051
  14 C :    0.027737
  15 C :   -0.094932
  16 C :    0.029037
  17 C :   -0.003200
  18 C :   -0.638162
  19 F :    0.209858
  20 F :    0.209530
  21 F :    0.197734
  22 H :    0.028915
  23 H :    0.028390
  24 H :    0.030608
  25 H :    0.030451
  26 H :    0.034469
  27 H :    0.037139
  28 H :    0.032296
  29 H :    0.048270
  30 H :    0.040430
  31 H :    0.030879
  32 H :    0.032960
  33 H :    0.032256
  34 H :    0.032359
  35 H :    0.029720
  36 H :    0.022671
  37 H :    0.035278
  38 H :    0.036166
  39 H :    0.026922
  40 H :    0.045700

  Mayer bond orders larger than 0.100000
B(  0-C ,  1-N ) :   0.8966 B(  0-C , 22-H ) :   0.9745 B(  0-C , 23-H ) :   0.9708
B(  0-C , 24-H ) :   0.9760 B(  1-N ,  2-C ) :   0.8600 B(  1-N , 25-H ) :   0.9186
B(  1-N , 40-H ) :   0.9527 B(  2-C ,  3-C ) :   0.9363 B(  2-C , 26-H ) :   0.9902
B(  2-C , 27-H ) :   0.9867 B(  3-C ,  4-C ) :   0.8822 B(  3-C , 28-H ) :   1.0361
B(  3-C , 29-H ) :   0.9878 B(  4-C ,  5-C ) :   0.8693 B(  4-C , 11-O ) :   0.9375
B(  4-C , 30-H ) :   1.0406 B(  5-C ,  6-C ) :   1.3711 B(  5-C , 10-C ) :   1.2317
B(  6-C ,  7-C ) :   1.4577 B(  6-C , 31-H ) :   0.9942 B(  7-C ,  8-C ) :   1.4187
B(  7-C , 32-H ) :   0.9698 B(  8-C ,  9-C ) :   1.4306 B(  8-C , 33-H ) :   0.9706
B(  9-C , 10-C ) :   1.4384 B(  9-C , 34-H ) :   0.9727 B( 10-C , 35-H ) :   1.0184
B( 11-O , 12-C ) :   1.0042 B( 12-C , 13-C ) :   1.3242 B( 12-C , 17-C ) :   1.3848
B( 13-C , 14-C ) :   1.4702 B( 13-C , 36-H ) :   0.9766 B( 14-C , 15-C ) :   1.4485
B( 14-C , 37-H ) :   0.9369 B( 15-C , 16-C ) :   1.3862 B( 15-C , 18-C ) :   0.9944
B( 16-C , 17-C ) :   1.5037 B( 16-C , 38-H ) :   0.9537 B( 17-C , 39-H ) :   0.9793
B( 18-C , 19-F ) :   1.1329 B( 18-C , 20-F ) :   1.1313 B( 18-C , 21-F ) :   1.1368

Dispersion correction           -0.020512243
FINAL SINGLE POINT ENERGY     -1088.683282733443

DIPOLE MOMENT
-------------
                                X             Y             Z
Electronic contribution:     48.94497      -8.66250      -0.91072
Nuclear contribution   :    -57.06415      10.58437       0.85216
                        -----------------------------------------
Total Dipole Moment    :     -8.11918       1.92187      -0.05856
                        -----------------------------------------
Magnitude (a.u.)       :      8.34375
Magnitude (Debye)      :     21.20812

Dispersion correction in the Hessian             ... done   (      1.1 sec)

VIBRATIONAL FREQUENCIES
-----------------------

Scaling factor for frequencies =  1.000000000  (already applied!)

   0:         0.00 cm**-1
   1:         0.00 cm**-1
   2:         0.00 cm**-1
   3:         0.00 cm**-1
   4:         0.00 cm**-1
   5:         0.00 cm**-1
   6:         8.75 cm**-1
   7:        20.15 cm**-1
   8:        30.07 cm**-1
   9:        48.83 cm**-1
  10:        52.62 cm**-1
  11:        63.57 cm**-1
  12:        85.12 cm**-1
  13:       101.88 cm**-1
  14:       106.70 cm**-1
  15:       159.27 cm**-1
  16:       173.95 cm**-1
  17:       197.61 cm**-1
  18:       211.67 cm**-1
  19:       237.01 cm**-1
  20:       258.70 cm**-1
  21:       270.91 cm**-1
  22:       289.17 cm**-1
  23:       330.35 cm**-1
  24:       349.14 cm**-1
  25:       405.11 cm**-1
  26:       420.63 cm**-1
  27:       422.77 cm**-1
  28:       428.48 cm**-1
  29:       442.08 cm**-1
  30:       492.03 cm**-1
  31:       522.28 cm**-1
  32:       523.28 cm**-1
  33:       565.89 cm**-1
  34:       584.97 cm**-1
  35:       608.22 cm**-1
  36:       627.96 cm**-1
  37:       635.35 cm**-1
  38:       658.88 cm**-1
  39:       685.20 cm**-1
  40:       740.44 cm**-1
  41:       766.39 cm**-1
  42:       770.23 cm**-1
  43:       785.85 cm**-1
  44:       789.31 cm**-1
  45:       821.14 cm**-1
  46:       846.02 cm**-1
  47:       861.51 cm**-1
  48:       871.27 cm**-1
  49:       877.45 cm**-1
  50:       900.98 cm**-1
  51:       933.17 cm**-1
  52:       977.73 cm**-1
  53:       992.50 cm**-1
  54:       998.38 cm**-1
  55:      1001.10 cm**-1
  56:      1018.41 cm**-1
  57:      1028.21 cm**-1
  58:      1035.84 cm**-1
  59:      1040.07 cm**-1
  60:      1054.50 cm**-1
  61:      1056.27 cm**-1
  62:      1065.52 cm**-1
  63:      1084.31 cm**-1
  64:      1105.46 cm**-1
  65:      1110.14 cm**-1
  66:      1130.44 cm**-1
  67:      1146.75 cm**-1
  68:      1166.25 cm**-1
  69:      1174.38 cm**-1
  70:      1181.70 cm**-1
  71:      1190.93 cm**-1
  72:      1210.45 cm**-1
  73:      1212.52 cm**-1
  74:      1218.10 cm**-1
  75:      1236.49 cm**-1
  76:      1282.47 cm**-1
  77:      1289.42 cm**-1
  78:      1315.77 cm**-1
  79:      1324.40 cm**-1
  80:      1342.23 cm**-1
  81:      1348.31 cm**-1
  82:      1357.53 cm**-1
  83:      1360.76 cm**-1
  84:      1369.55 cm**-1
  85:      1384.99 cm**-1
  86:      1401.93 cm**-1
  87:      1411.97 cm**-1
  88:      1419.58 cm**-1
  89:      1452.99 cm**-1
  90:      1475.47 cm**-1
  91:      1475.69 cm**-1
  92:      1479.04 cm**-1
  93:      1502.07 cm**-1
  94:      1504.17 cm**-1
  95:      1507.22 cm**-1
  96:      1513.77 cm**-1
  97:      1548.18 cm**-1
  98:      1576.03 cm**-1
  99:      1653.62 cm**-1
 100:      1664.43 cm**-1
 101:      1675.58 cm**-1
 102:      1683.18 cm**-1
 103:      1704.13 cm**-1
 104:      3059.52 cm**-1
 105:      3081.53 cm**-1
 106:      3099.15 cm**-1
 107:      3108.09 cm**-1
 108:      3137.99 cm**-1
 109:      3167.52 cm**-1
 110:      3185.92 cm**-1
 111:      3200.73 cm**-1
 112:      3202.09 cm**-1
 113:      3206.01 cm**-1
 114:      3214.95 cm**-1
 115:      3219.86 cm**-1
 116:      3221.79 cm**-1
 117:      3225.42 cm**-1
 118:      3232.47 cm**-1
 119:      3234.96 cm**-1
 120:      3239.84 cm**-1
 121:      3326.56 cm**-1
 122:      3515.97 cm**-1

IR SPECTRUM
-----------

 Mode   freq       eps      Int      T**2         TX        TY        TZ
       cm**-1   L/(mol*cm) km/mol    a.u.
----------------------------------------------------------------------------
  6:      8.75   0.000006    0.03  0.000225  (-0.003917 -0.010492 -0.009979)
  7:     20.15   0.000152    0.77  0.002361  ( 0.029704 -0.015478 -0.035196)
  8:     30.07   0.000678    3.43  0.007034  ( 0.073503  0.030781 -0.026155)
  9:     48.83   0.000013    0.07  0.000085  (-0.000515 -0.007450  0.005416)
 10:     52.62   0.000335    1.69  0.001985  (-0.000821  0.043644  0.008906)
 11:     63.57   0.000080    0.40  0.000391  (-0.009127 -0.012442  0.012386)
 12:     85.12   0.000207    1.05  0.000759  ( 0.017767 -0.014046  0.015685)
 13:    101.88   0.001203    6.08  0.003684  ( 0.028705 -0.039226 -0.036354)
 14:    106.70   0.000575    2.91  0.001682  ( 0.034583 -0.015199  0.015974)
 15:    159.27   0.000666    3.37  0.001305  ( 0.017235 -0.028700  0.013565)
 16:    173.95   0.002416   12.21  0.004334  ( 0.062523 -0.016027  0.012970)
 17:    197.61   0.000051    0.26  0.000081  ( 0.008759 -0.001896 -0.000822)
 18:    211.67   0.000236    1.19  0.000348  ( 0.010641 -0.015237 -0.001681)
 19:    237.01   0.000843    4.26  0.001109  ( 0.026021 -0.020482 -0.003584)
 20:    258.70   0.001143    5.78  0.001379  ( 0.010400 -0.031771 -0.016170)
 21:    270.91   0.001759    8.89  0.002026  ( 0.026044 -0.036570  0.003220)
 22:    289.17   0.000149    0.75  0.000160  ( 0.007202 -0.010414 -0.000066)
 23:    330.35   0.000357    1.80  0.000337  (-0.010246 -0.007429 -0.013303)
 24:    349.14   0.000217    1.10  0.000194  ( 0.005205  0.005502 -0.011683)
 25:    405.11   0.000366    1.85  0.000282  (-0.004639  0.016106 -0.001156)
 26:    420.63   0.000117    0.59  0.000087  (-0.004751 -0.007762  0.001930)
 27:    422.77   0.000106    0.53  0.000078  (-0.007365  0.000939  0.004797)
 28:    428.48   0.000151    0.76  0.000110  (-0.009293  0.004845  0.000511)
 29:    442.08   0.001394    7.04  0.000984  ( 0.026900 -0.013355  0.009045)
 30:    492.03   0.001899    9.60  0.001205  ( 0.029987 -0.017469  0.000472)
 31:    522.28   0.000179    0.90  0.000107  (-0.000093 -0.008944 -0.005186)
 32:    523.28   0.000674    3.41  0.000402  ( 0.008355  0.004886  0.017555)
 33:    565.89   0.000505    2.55  0.000278  (-0.001073 -0.016407 -0.002834)
 34:    584.97   0.000081    0.41  0.000043  ( 0.006226 -0.001842 -0.001014)
 35:    608.22   0.002913   14.72  0.001495  (-0.018237 -0.010188 -0.032530)
 36:    627.96   0.002042   10.32  0.001015  ( 0.024359 -0.018404 -0.009106)
 37:    635.35   0.000032    0.16  0.000016  (-0.000386  0.002494 -0.003029)
 38:    658.88   0.001710    8.64  0.000810  (-0.027202  0.005990  0.005843)
 39:    685.20   0.001795    9.07  0.000818  ( 0.028172 -0.004882  0.000210)
 40:    740.44   0.006884   34.79  0.002901  (-0.045430  0.028060 -0.007069)
 41:    766.39   0.000146    0.74  0.000060  ( 0.004645  0.005052  0.003537)
 42:    770.23   0.000546    2.76  0.000221  (-0.012873  0.004676 -0.005790)
 43:    785.85   0.010486   52.99  0.004164  ( 0.050696 -0.039220  0.007470)
 44:    789.31   0.003726   18.83  0.001473  (-0.030242  0.022115  0.008334)
 45:    821.14   0.000945    4.78  0.000359  (-0.005028  0.011031  0.014569)
 46:    846.02   0.001273    6.43  0.000470  ( 0.004686  0.009368  0.018970)
 47:    861.51   0.000076    0.39  0.000028  ( 0.005050 -0.000453 -0.001385)
 48:    871.27   0.003748   18.94  0.001342  (-0.031128  0.012720  0.014545)
 49:    877.45   0.011421   57.72  0.004062  ( 0.023273  0.021774  0.055193)
 50:    900.98   0.000076    0.39  0.000026  (-0.002456 -0.003752  0.002519)
 51:    933.17   0.001554    7.85  0.000520  (-0.021100  0.004376 -0.007434)
 52:    977.73   0.000665    3.36  0.000212  (-0.012181  0.003391 -0.007239)
 53:    992.50   0.001945    9.83  0.000611  (-0.009372  0.013322  0.018605)
 54:    998.38   0.000326    1.65  0.000102  ( 0.001081 -0.004157 -0.009142)
 55:   1001.10   0.002751   13.90  0.000857  (-0.023756 -0.010042 -0.013865)
 56:   1018.41   0.000053    0.27  0.000016  (-0.002452 -0.000428  0.003192)
 57:   1028.21   0.000447    2.26  0.000136  ( 0.004794  0.010611  0.000074)
 58:   1035.84   0.000094    0.48  0.000028  (-0.005148  0.001251  0.000621)
 59:   1040.07   0.005455   27.57  0.001637  (-0.039087  0.006380  0.008258)
 60:   1054.50   0.002731   13.80  0.000808  ( 0.014339  0.001497  0.024500)
 61:   1056.27   0.000621    3.14  0.000183  ( 0.008481  0.000432  0.010551)
 62:   1065.52   0.000865    4.37  0.000253  (-0.013888 -0.006761  0.003830)
 63:   1084.31   0.005012   25.33  0.001442  ( 0.036095  0.005322 -0.010550)
 64:   1105.46   0.024533  123.98  0.006925  (-0.080126  0.011337  0.019408)
 65:   1110.14   0.004489   22.69  0.001262  ( 0.025214 -0.025023 -0.000158)
 66:   1130.44   0.003659   18.49  0.001010  (-0.030428 -0.003647 -0.008427)
 67:   1146.75   0.007202   36.40  0.001960  (-0.004540 -0.038901  0.020643)
 68:   1166.25   0.000362    1.83  0.000097  ( 0.007592  0.005589  0.002844)
 69:   1174.38   0.001806    9.13  0.000480  (-0.008512 -0.016908  0.011025)
 70:   1181.70   0.049554  250.43  0.013086  (-0.022304 -0.041601 -0.104203)
 71:   1190.93   0.000110    0.56  0.000029  ( 0.004118 -0.000254  0.003442)
 72:   1210.45   0.036191  182.90  0.009330  (-0.055292 -0.071140  0.034818)
 73:   1212.52   0.001121    5.66  0.000288  ( 0.014376 -0.007789  0.004594)
 74:   1218.10   0.010389   52.50  0.002662  ( 0.034379 -0.035252  0.015397)
 75:   1236.49   0.003051   15.42  0.000770  (-0.003049  0.027479  0.002372)
 76:   1282.47   0.000554    2.80  0.000135  ( 0.010514 -0.004268  0.002449)
 77:   1289.42   0.068130  344.30  0.016489  ( 0.127401 -0.012118 -0.010538)
 78:   1315.77   0.001868    9.44  0.000443  ( 0.014631  0.010440  0.010951)
 79:   1324.40   0.000716    3.62  0.000169  ( 0.007405  0.001380 -0.010578)
 80:   1342.23   0.004698   23.74  0.001092  ( 0.026565  0.016015 -0.011408)
 81:   1348.31   0.016544   83.61  0.003829  ( 0.055752 -0.026740 -0.002384)
 82:   1357.53   0.061647  311.54  0.014171  ( 0.117622 -0.013596 -0.012300)
 83:   1360.76   0.001753    8.86  0.000402  ( 0.011980 -0.012917 -0.009574)
 84:   1369.55   0.007990   40.38  0.001821  ( 0.040738 -0.012335 -0.002984)
 85:   1384.99   0.001516    7.66  0.000342  ( 0.000395  0.018159 -0.003410)
 86:   1401.93   0.007599   38.40  0.001692  (-0.039418 -0.004400 -0.010886)
 87:   1411.97   0.002819   14.25  0.000623  ( 0.012811  0.002485  0.021278)
 88:   1419.58   0.003918   19.80  0.000861  ( 0.015994 -0.024499 -0.002273)
 89:   1452.99   0.006556   33.13  0.001408  ( 0.029787 -0.016210  0.016064)
 90:   1475.47   0.001942    9.81  0.000411  (-0.006651  0.017395 -0.007997)
 91:   1475.69   0.000675    3.41  0.000143  ( 0.004671 -0.006746  0.008682)
 92:   1479.04   0.002145   10.84  0.000453  (-0.011202  0.004745  0.017452)
 93:   1502.07   0.004303   21.75  0.000894  (-0.023205 -0.007456  0.017318)
 94:   1504.17   0.005853   29.58  0.001214  (-0.030172  0.006591 -0.016141)
 95:   1507.22   0.002899   14.65  0.000600  ( 0.015343 -0.006906 -0.017809)
 96:   1513.77   0.004434   22.41  0.000914  (-0.009304 -0.027414  0.008713)
 97:   1548.18   0.002386   12.06  0.000481  (-0.010514 -0.014960 -0.012110)
 98:   1576.03   0.014363   72.58  0.002844  ( 0.052995 -0.004498 -0.003903)
 99:   1653.62   0.002138   10.80  0.000403  (-0.003128  0.019498  0.003675)
100:   1664.43   0.001436    7.26  0.000269  ( 0.006678 -0.013334  0.006850)
101:   1675.58   0.003750   18.95  0.000698  ( 0.014018 -0.020814  0.008282)
102:   1683.18   0.000867    4.38  0.000161  (-0.002384 -0.012449 -0.000296)
103:   1704.13   0.020980  106.02  0.003842  (-0.061360  0.002359  0.008442)
104:   3059.52   0.001152    5.82  0.000118  (-0.000536  0.001992 -0.010643)
105:   3081.53   0.001858    9.39  0.000188  ( 0.010143  0.002236 -0.008959)
106:   3099.15   0.000175    0.89  0.000018  (-0.002471  0.003146 -0.001285)
107:   3108.09   0.001553    7.85  0.000156  (-0.008430  0.008884 -0.002429)
108:   3137.99   0.000691    3.49  0.000069  (-0.004517 -0.006916 -0.000698)
109:   3167.52   0.000423    2.14  0.000042  ( 0.003542 -0.004819 -0.002435)
110:   3185.92   0.000433    2.19  0.000042  ( 0.000677  0.002318  0.006046)
111:   3200.73   0.000256    1.30  0.000025  ( 0.003152 -0.003881  0.000076)
112:   3202.09   0.000013    0.06  0.000001  ( 0.000184  0.001073  0.000245)
113:   3206.01   0.000005    0.02  0.000000  (-0.000220  0.000626  0.000119)
114:   3214.95   0.000040    0.20  0.000004  ( 0.001021  0.000041 -0.001692)
115:   3219.86   0.000379    1.92  0.000037  (-0.005443  0.002670 -0.000003)
116:   3221.79   0.000284    1.43  0.000027  (-0.002105 -0.001287  0.004626)
117:   3225.42   0.000458    2.32  0.000044  ( 0.006420  0.000873 -0.001533)
118:   3232.47   0.000264    1.33  0.000025  ( 0.002197  0.004054  0.002058)
119:   3234.96   0.000108    0.55  0.000010  (-0.002331  0.002177 -0.000532)
120:   3239.84   0.000965    4.88  0.000093  ( 0.009457 -0.000030 -0.001874)
121:   3326.56   0.081620  412.47  0.007657  (-0.046038  0.074397  0.001499)
122:   3515.97   0.011746   59.36  0.001043  (-0.027774  0.002493  0.016276)

--------------------------
THERMOCHEMISTRY AT 298.15K
--------------------------

Temperature         ... 298.15 K
Pressure            ... 1.00 atm
Total Mass          ... 310.34 AMU

Throughout the following assumptions are being made:
  (1) The electronic state is orbitally nondegenerate
  (2) There are no thermally accessible electronically excited states
  (3) Hindered rotations indicated by low frequency modes are not
      treated as such but are treated as vibrations and this may
      cause some error
  (4) All equations used are the standard statistical mechanics
      equations for an ideal gas
  (5) All vibrations are strictly harmonic

freq.       8.75  E(vib)   ...       0.58
freq.      20.15  E(vib)   ...       0.56
freq.      30.07  E(vib)   ...       0.55
freq.      48.83  E(vib)   ...       0.53
freq.      52.62  E(vib)   ...       0.52
freq.      63.57  E(vib)   ...       0.51
freq.      85.12  E(vib)   ...       0.48
freq.     101.88  E(vib)   ...       0.46
freq.     106.70  E(vib)   ...       0.45
freq.     159.27  E(vib)   ...       0.39
freq.     173.95  E(vib)   ...       0.38
freq.     197.61  E(vib)   ...       0.35
freq.     211.67  E(vib)   ...       0.34
freq.     237.01  E(vib)   ...       0.32
freq.     258.70  E(vib)   ...       0.30
freq.     270.91  E(vib)   ...       0.29
freq.     289.17  E(vib)   ...       0.27
freq.     330.35  E(vib)   ...       0.24
freq.     349.14  E(vib)   ...       0.23
freq.     405.11  E(vib)   ...       0.19
freq.     420.63  E(vib)   ...       0.18
freq.     422.77  E(vib)   ...       0.18
freq.     428.48  E(vib)   ...       0.18
freq.     442.08  E(vib)   ...       0.17
freq.     492.03  E(vib)   ...       0.14
freq.     522.28  E(vib)   ...       0.13
freq.     523.28  E(vib)   ...       0.13
freq.     565.89  E(vib)   ...       0.11
freq.     584.97  E(vib)   ...       0.11
freq.     608.22  E(vib)   ...       0.10
freq.     627.96  E(vib)   ...       0.09
freq.     635.35  E(vib)   ...       0.09
freq.     658.88  E(vib)   ...       0.08
freq.     685.20  E(vib)   ...       0.07
freq.     740.44  E(vib)   ...       0.06
freq.     766.39  E(vib)   ...       0.06
freq.     770.23  E(vib)   ...       0.05
freq.     785.85  E(vib)   ...       0.05
freq.     789.31  E(vib)   ...       0.05
freq.     821.14  E(vib)   ...       0.05
freq.     846.02  E(vib)   ...       0.04
freq.     861.51  E(vib)   ...       0.04
freq.     871.27  E(vib)   ...       0.04
freq.     877.45  E(vib)   ...       0.04
freq.     900.98  E(vib)   ...       0.03
freq.     933.17  E(vib)   ...       0.03
freq.     977.73  E(vib)   ...       0.03
freq.     992.50  E(vib)   ...       0.02
freq.     998.38  E(vib)   ...       0.02
freq.    1001.10  E(vib)   ...       0.02
freq.    1018.41  E(vib)   ...       0.02
freq.    1028.21  E(vib)   ...       0.02
freq.    1035.84  E(vib)   ...       0.02
freq.    1040.07  E(vib)   ...       0.02
freq.    1054.50  E(vib)   ...       0.02
freq.    1056.27  E(vib)   ...       0.02
freq.    1065.52  E(vib)   ...       0.02
freq.    1084.31  E(vib)   ...       0.02
freq.    1105.46  E(vib)   ...       0.02
freq.    1110.14  E(vib)   ...       0.02
freq.    1130.44  E(vib)   ...       0.01
freq.    1146.75  E(vib)   ...       0.01
freq.    1166.25  E(vib)   ...       0.01
freq.    1174.38  E(vib)   ...       0.01
freq.    1181.70  E(vib)   ...       0.01
freq.    1190.93  E(vib)   ...       0.01
freq.    1210.45  E(vib)   ...       0.01
freq.    1212.52  E(vib)   ...       0.01
freq.    1218.10  E(vib)   ...       0.01
freq.    1236.49  E(vib)   ...       0.01
freq.    1282.47  E(vib)   ...       0.01
freq.    1289.42  E(vib)   ...       0.01
freq.    1315.77  E(vib)   ...       0.01
freq.    1324.40  E(vib)   ...       0.01
freq.    1342.23  E(vib)   ...       0.01
freq.    1348.31  E(vib)   ...       0.01
freq.    1357.53  E(vib)   ...       0.01
freq.    1360.76  E(vib)   ...       0.01
freq.    1369.55  E(vib)   ...       0.01
freq.    1384.99  E(vib)   ...       0.00
freq.    1401.93  E(vib)   ...       0.00
freq.    1411.97  E(vib)   ...       0.00
freq.    1419.58  E(vib)   ...       0.00
freq.    1452.99  E(vib)   ...       0.00
freq.    1475.47  E(vib)   ...       0.00
freq.    1475.69  E(vib)   ...       0.00
freq.    1479.04  E(vib)   ...       0.00
freq.    1502.07  E(vib)   ...       0.00
freq.    1504.17  E(vib)   ...       0.00
freq.    1507.22  E(vib)   ...       0.00
freq.    1513.77  E(vib)   ...       0.00
freq.    1548.18  E(vib)   ...       0.00
freq.    1576.03  E(vib)   ...       0.00
freq.    1653.62  E(vib)   ...       0.00
freq.    1664.43  E(vib)   ...       0.00
freq.    1675.58  E(vib)   ...       0.00
freq.    1683.18  E(vib)   ...       0.00
freq.    1704.13  E(vib)   ...       0.00
freq.    3059.52  E(vib)   ...       0.00
freq.    3081.53  E(vib)   ...       0.00
freq.    3099.15  E(vib)   ...       0.00
freq.    3108.09  E(vib)   ...       0.00
freq.    3137.99  E(vib)   ...       0.00
freq.    3167.52  E(vib)   ...       0.00
freq.    3185.92  E(vib)   ...       0.00
freq.    3200.73  E(vib)   ...       0.00
freq.    3202.09  E(vib)   ...       0.00
freq.    3206.01  E(vib)   ...       0.00
freq.    3214.95  E(vib)   ...       0.00
freq.    3219.86  E(vib)   ...       0.00
freq.    3221.79  E(vib)   ...       0.00
freq.    3225.42  E(vib)   ...       0.00
freq.    3232.47  E(vib)   ...       0.00
freq.    3234.96  E(vib)   ...       0.00
freq.    3239.84  E(vib)   ...       0.00
freq.    3326.56  E(vib)   ...       0.00
freq.    3515.97  E(vib)   ...       0.00

------------
INNER ENERGY
------------

The inner energy is: U= E(el) + E(ZPE) + E(vib) + E(rot) + E(trans)
    E(el)   - is the total energy from the electronic structure calculation
              = E(kin-el) + E(nuc-el) + E(el-el) + E(nuc-nuc)
    E(ZPE)  - the the zero temperature vibrational energy from the frequency calculation
    E(vib)  - the the finite temperature correction to E(ZPE) due to population
              of excited vibrational states
    E(rot)  - is the rotational thermal energy
    E(trans)- is the translational thermal energy

Summary of contributions to the inner energy U:
Electronic energy                ...  -1088.68328273 Eh
Zero point energy                ...      0.34018417 Eh     213.47 kcal/mol
Thermal vibrational correction   ...      0.01712764 Eh      10.75 kcal/mol
Thermal rotational correction    ...      0.00141627 Eh       0.89 kcal/mol
Thermal translational correction ...      0.00141627 Eh       0.89 kcal/mol
-----------------------------------------------------------------------
Total thermal energy                  -1088.32313837 Eh

Summary of corrections to the electronic energy:
(perhaps to be used in another calculation)
Total thermal correction                  0.01996019 Eh      12.53 kcal/mol

Rotational constants in cm-1:     0.018552     0.004225     0.003865

                             ****ORCA TERMINATED NORMALLY****
TOTAL RUN TIME: 0 days 5 hours 35 minutes 45 seconds 762 msec
