                         Program Version 5.0.3 -  RELEASE  -
|  1> ! wB97X-D3 TightOpt Freq def2-TZVPP def2/J RIJCOSX TightSCF defgrid3 CHELPG
|  2> %maxcore 3200
|  3>
|  4> %pal nprocs 8
|  5> end
|  6>
|  7> %chelpg
|  8> grid 0.1
|  9> rmax 3.0
| 10> end
| 11>
| 12>
| 13> *xyz 1 1
| 14>  C    -3.3566452018    2.7575555447    -1.8550044528
| 15>  N    -3.0256177114    2.5390634414    -0.4385250868
| 16>  C    -3.9328695935    1.5951563473    0.2661241203
| 17>  C    -3.2724681224    1.1143173662    1.5524158121
| 18>  C    -2.0060050464    0.2778486287    1.2773796413
| 19>  C    -2.3302597563    -0.9272162327    0.4177761408
| 20>  C    -2.0796696805    -0.9396926291    -0.9485754109
| 21>  C    -2.4066252321    -2.0507276407    -1.7077944137
| 22>  C    -2.9950022970    -3.1514929446    -1.1106136251
| 23>  C    -3.2478912407    -3.1439227151    0.2517258593
| 24>  C    -2.9155449996    -2.0385951082    1.0133040630
| 25>  O    -1.0593168727    1.1642227816    0.6711503628
| 26>  C    0.2523360754    0.7612253912    0.5181507867
| 27>  C    0.7331870155    -0.4937534904    0.8603306562
| 28>  C    2.0704650867    -0.7884319026    0.6588142760
| 29>  C    2.9206127676    0.1645056587    0.1202928415
| 30>  C    2.4387120264    1.4206655348    -0.2259518511
| 31>  C    1.1069129069    1.7172456777    -0.0261665182
| 32>  C    4.3649853862    -0.1720606090    -0.1381024436
| 33>  F    5.1675543252    0.8903261978    0.0010984674
| 34>  F    4.8254362129    -1.1246499182    0.6792151997
| 35>  F    4.5427763825    -0.6230047630    -1.3943720658
| 36>  H    -4.3653632970    3.1562946703    -1.9496949008
| 37>  H    -3.3016561748    1.8142838740    -2.3950280917
| 38>  H    -2.6571738050    3.4607741886    -2.3020807536
| 39>  H    -3.0202125093    3.4357247742    0.0584564217
| 40>  H    -4.1117915358    0.7413637490    -0.3919186037
| 41>  H    -4.8855800531    2.0852309250    0.4728394322
| 42>  H    -3.9791981522    0.4917975682    2.0992239463
| 43>  H    -3.0092830433    1.9628388921    2.1866163236
| 44>  H    -1.6081391312    -0.0579350863    2.2439054419
| 45>  H    -1.5956314604    -0.0977994062    -1.4255099225
| 46>  H    -2.1959555553    -2.0544493897    -2.7659748309
| 47>  H    -3.2476757107    -4.0163945347    -1.7028860554
| 48>  H    -3.6974848234    -4.0029414628    0.7239684511
| 49>  H    -3.1010501730    -2.0395682680    2.0773785696
| 50>  H    0.0866541991    -1.2516471812    1.2703474144
| 51>  H    2.4496572185    -1.7623171923    0.9252744501
| 52>  H    3.1043050710    2.1602571173    -0.6420576740
| 53>  H    0.7233736848    2.6933425002    -0.2804328678
| 54>  H    -2.0665207686    2.1197712735    -0.3149157273
| 55> *
| 56>
| 57>
| 58>                          ****END OF INPUT****
 Total Charge           Charge          ....    1
 Multiplicity           Mult            ....    1
 Number of Electrons    NEL             ....  162
Dispersion correction           -0.020785446
FINAL SINGLE POINT ENERGY     -1088.683034141692
Dispersion correction            ... done
Dispersion correction           -0.020134819
FINAL SINGLE POINT ENERGY     -1088.684244257990
Dispersion correction            ... done
Dispersion correction           -0.020365128
FINAL SINGLE POINT ENERGY     -1088.685139199318
Dispersion correction            ... done
FINAL SINGLE POINT ENERGY     -1088.685273781814
FINAL SINGLE POINT ENERGY     -1088.685326412442
FINAL SINGLE POINT ENERGY     -1088.685359314137
FINAL SINGLE POINT ENERGY     -1088.685370830547
FINAL SINGLE POINT ENERGY     -1088.685375389173
FINAL SINGLE POINT ENERGY     -1088.685377434028
Dispersion correction           -0.020363146
FINAL SINGLE POINT ENERGY     -1088.685378604344
Dispersion correction            ... done
Dispersion correction           -0.020363835
FINAL SINGLE POINT ENERGY     -1088.685378868151
Dispersion correction            ... done
                    ***********************HURRAY********************

CARTESIAN COORDINATES (ANGSTROEM)
---------------------------------
  C     -3.530694    2.781360   -1.850126
  N     -3.036522    2.535871   -0.472741
  C     -3.894877    1.606086    0.337481
  C     -3.140863    1.089628    1.550523
  C     -1.935456    0.209130    1.199481
  C     -2.333514   -0.987237    0.358380
  C     -2.079042   -1.044111   -1.006388
  C     -2.511811   -2.129619   -1.755750
  C     -3.202272   -3.164971   -1.147107
  C     -3.449777   -3.118502    0.217549
  C     -3.015463   -2.036735    0.965830
  O     -1.012952    1.071058    0.530276
  C      0.318342    0.721835    0.439688
  C      0.818724   -0.505282    0.840044
  C      2.178851   -0.750035    0.711424
  C      3.021538    0.212808    0.186431
  C      2.505843    1.437299   -0.217868
  C      1.156292    1.694167   -0.088913
  C      4.489910   -0.074905    0.002607
  F      5.230825    1.027877    0.164494
  F      4.929580   -0.991856    0.869905
  F      4.738967   -0.540299   -1.231218
  H     -4.537418    3.188701   -1.801578
  H     -3.539653    1.834894   -2.384477
  H     -2.868356    3.483771   -2.349063
  H     -2.944238    3.418603    0.025888
  H     -4.173557    0.786721   -0.324539
  H     -4.795244    2.150705    0.616514
  H     -3.841415    0.498974    2.140629
  H     -2.810582    1.915250    2.185421
  H     -1.482000   -0.126482    2.135757
  H     -1.506556   -0.260769   -1.488863
  H     -2.295387   -2.170760   -2.815325
  H     -3.535508   -4.012877   -1.730566
  H     -3.974897   -3.931004    0.702200
  H     -3.201426   -2.017723    2.034334
  H      0.176665   -1.280012    1.232805
  H      2.577450   -1.705015    1.025342
  H      3.163041    2.195264   -0.621952
  H      0.749639    2.653737   -0.381568
  H     -2.089849    2.121670   -0.474780

 Multiplicity           Mult            ....    1
 Number of Electrons    NEL             ....  162
 Basis Dimension        Dim             ....  948

ORBITAL ENERGIES
----------------

  NO   OCC          E(Eh)            E(eV)
   0   2.0000     -24.890353      -677.3009
   1   2.0000     -24.889543      -677.2789
   2   2.0000     -24.885605      -677.1717
   3   2.0000     -19.413267      -528.2618
   4   2.0000     -14.703342      -400.0983
   5   2.0000     -10.605908      -288.6014
   6   2.0000     -10.494992      -285.5833
   7   2.0000     -10.491400      -285.4855
   8   2.0000     -10.489143      -285.4241
   9   2.0000     -10.468780      -284.8700
  10   2.0000     -10.442824      -284.1637
  11   2.0000     -10.415610      -283.4232
  12   2.0000     -10.403078      -283.0822
  13   2.0000     -10.400825      -283.0208
  14   2.0000     -10.400499      -283.0120
  15   2.0000     -10.400013      -282.9987
  16   2.0000     -10.399479      -282.9842
  17   2.0000     -10.398805      -282.9659
  18   2.0000     -10.398240      -282.9505
  19   2.0000     -10.396716      -282.9090
  20   2.0000     -10.395439      -282.8743
  21   2.0000     -10.392032      -282.7816
  22   2.0000      -1.508814       -41.0569
  23   2.0000      -1.418439       -38.5977
  24   2.0000      -1.413927       -38.4749
  25   2.0000      -1.334206       -36.3056
  26   2.0000      -1.289736       -35.0955
  27   2.0000      -1.114569       -30.3290
  28   2.0000      -1.100394       -29.9433
  29   2.0000      -1.076463       -29.2921
  30   2.0000      -1.023128       -27.8407
  31   2.0000      -1.000370       -27.2215
  32   2.0000      -0.989600       -26.9284
  33   2.0000      -0.986567       -26.8459
  34   2.0000      -0.984310       -26.7844
  35   2.0000      -0.954552       -25.9747
  36   2.0000      -0.906346       -24.6629
  37   2.0000      -0.887109       -24.1395
  38   2.0000      -0.869509       -23.6605
  39   2.0000      -0.848941       -23.1009
  40   2.0000      -0.841069       -22.8867
  41   2.0000      -0.834204       -22.6998
  42   2.0000      -0.812073       -22.0976
  43   2.0000      -0.783797       -21.3282
  44   2.0000      -0.777279       -21.1508
  45   2.0000      -0.773788       -21.0558
  46   2.0000      -0.773098       -21.0371
  47   2.0000      -0.771807       -21.0019
  48   2.0000      -0.756020       -20.5723
  49   2.0000      -0.744483       -20.2584
  50   2.0000      -0.723987       -19.7007
  51   2.0000      -0.706804       -19.2331
  52   2.0000      -0.688677       -18.7399
  53   2.0000      -0.684590       -18.6286
  54   2.0000      -0.677486       -18.4353
  55   2.0000      -0.670843       -18.2546
  56   2.0000      -0.666926       -18.1480
  57   2.0000      -0.665144       -18.0995
  58   2.0000      -0.651099       -17.7173
  59   2.0000      -0.649316       -17.6688
  60   2.0000      -0.647116       -17.6089
  61   2.0000      -0.643417       -17.5083
  62   2.0000      -0.641520       -17.4567
  63   2.0000      -0.634681       -17.2705
  64   2.0000      -0.628082       -17.0910
  65   2.0000      -0.624232       -16.9862
  66   2.0000      -0.613173       -16.6853
  67   2.0000      -0.603963       -16.4347
  68   2.0000      -0.602508       -16.3951
  69   2.0000      -0.599197       -16.3050
  70   2.0000      -0.586196       -15.9512
  71   2.0000      -0.579195       -15.7607
  72   2.0000      -0.566995       -15.4287
  73   2.0000      -0.557930       -15.1821
  74   2.0000      -0.553140       -15.0517
  75   2.0000      -0.549270       -14.9464
  76   2.0000      -0.542517       -14.7626
  77   2.0000      -0.466438       -12.6924
  78   2.0000      -0.460447       -12.5294
  79   2.0000      -0.454504       -12.3677
  80   2.0000      -0.439796       -11.9675
  81   0.0000      -0.069146        -1.8816
  82   0.0000      -0.063284        -1.7220
  83   0.0000      -0.056638        -1.5412
  84   0.0000      -0.050607        -1.3771
  85   0.0000      -0.048042        -1.3073

MULLIKEN ATOMIC CHARGES
-----------------------
   0 C :   -0.162935
   1 N :    0.081114
   2 C :   -0.192675
   3 C :   -0.149813
   4 C :    0.202686
   5 C :    0.003851
   6 C :   -0.219705
   7 C :   -0.141630
   8 C :   -0.095476
   9 C :   -0.124158
  10 C :   -0.188352
  11 O :   -0.368974
  12 C :    0.297329
  13 C :   -0.123303
  14 C :   -0.165502
  15 C :   -0.064562
  16 C :   -0.108642
  17 C :   -0.233115
  18 C :    0.545833
  19 F :   -0.166637
  20 F :   -0.164757
  21 F :   -0.162427
  22 H :    0.139847
  23 H :    0.133338
  24 H :    0.141672
  25 H :    0.172438
  26 H :    0.160785
  27 H :    0.156819
  28 H :    0.112008
  29 H :    0.116804
  30 H :    0.137633
  31 H :    0.131717
  32 H :    0.146028
  33 H :    0.150256
  34 H :    0.148583
  35 H :    0.129445
  36 H :    0.131231
  37 H :    0.145226
  38 H :    0.141541
  39 H :    0.110428
  40 H :    0.196048
Sum of atomic charges:    1.0000000

LOEWDIN ATOMIC CHARGES
----------------------
   0 C :    0.072680
   1 N :    0.524518
   2 C :    0.020411
   3 C :   -0.003829
   4 C :   -0.141611
   5 C :   -0.098429
   6 C :   -0.021129
   7 C :    0.000898
   8 C :    0.008753
   9 C :    0.009669
  10 C :   -0.002771
  11 O :    0.302878
  12 C :   -0.195713
  13 C :   -0.005098
  14 C :    0.034909
  15 C :   -0.089904
  16 C :    0.031424
  17 C :   -0.013203
  18 C :   -0.639549
  19 F :    0.210069
  20 F :    0.213663
  21 F :    0.201649
  22 H :    0.029445
  23 H :    0.028976
  24 H :    0.027040
  25 H :    0.044727
  26 H :    0.038809
  27 H :    0.033122
  28 H :    0.048389
  29 H :    0.034370
  30 H :    0.042021
  31 H :    0.017829
  32 H :    0.028770
  33 H :    0.030477
  34 H :    0.031092
  35 H :    0.028617
  36 H :    0.028308
  37 H :    0.037391
  38 H :    0.037163
  39 H :    0.019670
  40 H :   -0.006501

  Mayer bond orders larger than 0.100000
B(  0-C ,  1-N ) :   0.8952 B(  0-C , 22-H ) :   0.9728 B(  0-C , 23-H ) :   0.9773
B(  0-C , 24-H ) :   0.9718 B(  1-N ,  2-C ) :   0.8608 B(  1-N , 25-H ) :   0.9570
B(  1-N , 40-H ) :   0.9045 B(  2-C ,  3-C ) :   0.9241 B(  2-C , 26-H ) :   0.9889
B(  2-C , 27-H ) :   0.9872 B(  3-C ,  4-C ) :   0.9152 B(  3-C , 28-H ) :   0.9951
B(  3-C , 29-H ) :   1.0146 B(  4-C ,  5-C ) :   0.8448 B(  4-C , 11-O ) :   0.8754
B(  4-C , 30-H ) :   1.0320 B(  5-C ,  6-C ) :   1.2181 B(  5-C , 10-C ) :   1.3919
B(  6-C ,  7-C ) :   1.4875 B(  6-C , 31-H ) :   0.9990 B(  7-C ,  8-C ) :   1.4502
B(  7-C , 32-H ) :   0.9679 B(  8-C ,  9-C ) :   1.4205 B(  8-C , 33-H ) :   0.9662
B(  9-C , 10-C ) :   1.4875 B(  9-C , 34-H ) :   0.9679 B( 10-C , 35-H ) :   0.9744
B( 11-O , 12-C ) :   0.9458 B( 11-O , 40-H ) :   0.1088 B( 12-C , 13-C ) :   1.3557
B( 12-C , 17-C ) :   1.3736 B( 13-C , 14-C ) :   1.4747 B( 13-C , 36-H ) :   0.9685
B( 14-C , 15-C ) :   1.4435 B( 14-C , 37-H ) :   0.9366 B( 15-C , 16-C ) :   1.4029
B( 15-C , 18-C ) :   0.9908 B( 16-C , 17-C ) :   1.5239 B( 16-C , 38-H ) :   0.9489
B( 17-C , 39-H ) :   0.9702 B( 18-C , 19-F ) :   1.1313 B( 18-C , 20-F ) :   1.1342
B( 18-C , 21-F ) :   1.1389

Dispersion correction           -0.020365204
FINAL SINGLE POINT ENERGY     -1088.685378742533

DIPOLE MOMENT
-------------
                                X             Y             Z
Electronic contribution:     46.32785      -5.61764       1.79798
Nuclear contribution   :    -52.60680       8.54790      -2.17666
                        -----------------------------------------
Total Dipole Moment    :     -6.27895       2.93026      -0.37869
                        -----------------------------------------
Magnitude (a.u.)       :      6.93938
Magnitude (Debye)      :     17.63851

Dispersion correction in the Hessian             ... done   (      1.1 sec)

VIBRATIONAL FREQUENCIES
-----------------------

Scaling factor for frequencies =  1.000000000  (already applied!)

   0:         0.00 cm**-1
   1:         0.00 cm**-1
   2:         0.00 cm**-1
   3:         0.00 cm**-1
   4:         0.00 cm**-1
   5:         0.00 cm**-1
   6:         7.68 cm**-1
   7:        21.24 cm**-1
   8:        27.86 cm**-1
   9:        42.99 cm**-1
  10:        46.72 cm**-1
  11:        61.04 cm**-1
  12:        84.55 cm**-1
  13:       112.00 cm**-1
  14:       119.13 cm**-1
  15:       156.73 cm**-1
  16:       191.64 cm**-1
  17:       204.21 cm**-1
  18:       214.69 cm**-1
  19:       243.17 cm**-1
  20:       268.39 cm**-1
  21:       280.19 cm**-1
  22:       302.80 cm**-1
  23:       329.32 cm**-1
  24:       370.13 cm**-1
  25:       404.68 cm**-1
  26:       412.55 cm**-1
  27:       418.69 cm**-1
  28:       421.80 cm**-1
  29:       428.79 cm**-1
  30:       501.49 cm**-1
  31:       517.91 cm**-1
  32:       524.95 cm**-1
  33:       567.74 cm**-1
  34:       585.68 cm**-1
  35:       607.19 cm**-1
  36:       632.27 cm**-1
  37:       636.58 cm**-1
  38:       659.54 cm**-1
  39:       684.74 cm**-1
  40:       734.38 cm**-1
  41:       764.40 cm**-1
  42:       769.67 cm**-1
  43:       780.43 cm**-1
  44:       816.02 cm**-1
  45:       826.40 cm**-1
  46:       843.80 cm**-1
  47:       849.69 cm**-1
  48:       867.18 cm**-1
  49:       872.72 cm**-1
  50:       886.59 cm**-1
  51:       939.11 cm**-1
  52:       968.08 cm**-1
  53:       973.79 cm**-1
  54:       998.63 cm**-1
  55:      1015.62 cm**-1
  56:      1025.55 cm**-1
  57:      1028.67 cm**-1
  58:      1031.40 cm**-1
  59:      1040.20 cm**-1
  60:      1051.92 cm**-1
  61:      1053.48 cm**-1
  62:      1067.32 cm**-1
  63:      1077.10 cm**-1
  64:      1098.22 cm**-1
  65:      1108.78 cm**-1
  66:      1127.28 cm**-1
  67:      1148.34 cm**-1
  68:      1156.53 cm**-1
  69:      1185.91 cm**-1
  70:      1186.25 cm**-1
  71:      1191.34 cm**-1
  72:      1211.45 cm**-1
  73:      1214.58 cm**-1
  74:      1218.09 cm**-1
  75:      1233.11 cm**-1
  76:      1272.12 cm**-1
  77:      1285.12 cm**-1
  78:      1314.25 cm**-1
  79:      1327.09 cm**-1
  80:      1339.59 cm**-1
  81:      1348.51 cm**-1
  82:      1354.93 cm**-1
  83:      1359.70 cm**-1
  84:      1367.12 cm**-1
  85:      1386.31 cm**-1
  86:      1396.79 cm**-1
  87:      1418.35 cm**-1
  88:      1428.35 cm**-1
  89:      1469.07 cm**-1
  90:      1475.02 cm**-1
  91:      1481.20 cm**-1
  92:      1486.11 cm**-1
  93:      1504.85 cm**-1
  94:      1505.93 cm**-1
  95:      1512.93 cm**-1
  96:      1514.23 cm**-1
  97:      1552.22 cm**-1
  98:      1574.90 cm**-1
  99:      1669.92 cm**-1
 100:      1678.37 cm**-1
 101:      1681.82 cm**-1
 102:      1688.85 cm**-1
 103:      1703.11 cm**-1
 104:      3075.82 cm**-1
 105:      3084.81 cm**-1
 106:      3097.19 cm**-1
 107:      3106.73 cm**-1
 108:      3143.34 cm**-1
 109:      3165.76 cm**-1
 110:      3184.94 cm**-1
 111:      3194.61 cm**-1
 112:      3197.59 cm**-1
 113:      3200.07 cm**-1
 114:      3208.77 cm**-1
 115:      3212.76 cm**-1
 116:      3221.35 cm**-1
 117:      3229.34 cm**-1
 118:      3232.84 cm**-1
 119:      3233.17 cm**-1
 120:      3244.62 cm**-1
 121:      3262.33 cm**-1
 122:      3518.46 cm**-1

IR SPECTRUM
-----------

 Mode   freq       eps      Int      T**2         TX        TY        TZ
       cm**-1   L/(mol*cm) km/mol    a.u.
----------------------------------------------------------------------------
  6:      7.68   0.000029    0.15  0.001179  (-0.003956  0.013364  0.031378)
  7:     21.24   0.000130    0.66  0.001905  ( 0.018442  0.038716  0.008146)
  8:     27.86   0.000630    3.18  0.007056  ( 0.025492  0.075900  0.025401)
  9:     42.99   0.000067    0.34  0.000487  ( 0.011946 -0.001262  0.018517)
 10:     46.72   0.000301    1.52  0.002010  ( 0.043970  0.008759  0.000591)
 11:     61.04   0.000571    2.88  0.002918  (-0.042352  0.033528 -0.000715)
 12:     84.55   0.000369    1.87  0.001363  (-0.030243  0.009759 -0.018791)
 13:    112.00   0.000657    3.32  0.001829  ( 0.006170  0.022911  0.035585)
 14:    119.13   0.000437    2.21  0.001145  (-0.030617 -0.001827 -0.014306)
 15:    156.73   0.002061   10.41  0.004103  ( 0.056410 -0.030344  0.000112)
 16:    191.64   0.000439    2.22  0.000715  ( 0.024861 -0.005789  0.007954)
 17:    204.21   0.000840    4.24  0.001284  (-0.009204  0.032747 -0.011244)
 18:    214.69   0.000391    1.98  0.000568  ( 0.003616 -0.015423  0.017820)
 19:    243.17   0.003441   17.39  0.004416  (-0.038051  0.054133 -0.006172)
 20:    268.39   0.000774    3.91  0.000900  (-0.022082  0.008110 -0.018617)
 21:    280.19   0.001001    5.06  0.001115  ( 0.021463 -0.020532  0.015242)
 22:    302.80   0.000161    0.81  0.000166  (-0.002719  0.004994  0.011544)
 23:    329.32   0.000487    2.46  0.000462  (-0.016391 -0.001596 -0.013810)
 24:    370.13   0.000451    2.28  0.000380  (-0.002673 -0.014970  0.012217)
 25:    404.68   0.000934    4.72  0.000720  ( 0.013456 -0.022059  0.007260)
 26:    412.55   0.001318    6.66  0.000997  (-0.025790  0.011513 -0.014104)
 27:    418.69   0.000148    0.75  0.000110  (-0.002121  0.008988 -0.004991)
 28:    421.80   0.000093    0.47  0.000069  ( 0.005073  0.003019 -0.005827)
 29:    428.79   0.000048    0.24  0.000035  ( 0.003216  0.000900 -0.004879)
 30:    501.49   0.001468    7.42  0.000914  (-0.028477  0.009454  0.003668)
 31:    517.91   0.000404    2.04  0.000244  ( 0.010937  0.004644  0.010117)
 32:    524.95   0.000441    2.23  0.000262  (-0.001315 -0.003299 -0.015805)
 33:    567.74   0.000288    1.45  0.000158  (-0.001907  0.012016  0.003163)
 34:    585.68   0.000040    0.20  0.000021  (-0.004530  0.000783 -0.000326)
 35:    607.19   0.002957   14.94  0.001520  ( 0.016997  0.009649  0.033728)
 36:    632.27   0.002700   13.64  0.001332  (-0.028860  0.020758  0.008286)
 37:    636.58   0.000084    0.43  0.000041  ( 0.001629 -0.005491  0.002933)
 38:    659.54   0.002696   13.62  0.001276  (-0.034745  0.007439  0.003599)
 39:    684.74   0.002659   13.44  0.001212  (-0.034261 -0.004633 -0.004085)
 40:    734.38   0.008229   41.59  0.003497  ( 0.053568 -0.022870  0.010206)
 41:    764.40   0.000142    0.72  0.000058  (-0.003092 -0.006232 -0.003123)
 42:    769.67   0.000526    2.66  0.000213  ( 0.009961  0.001352  0.010592)
 43:    780.43   0.008899   44.97  0.003558  (-0.048054  0.033304 -0.011840)
 44:    816.02   0.000617    3.12  0.000236  (-0.002654 -0.010698 -0.010701)
 45:    826.40   0.004424   22.36  0.001671  ( 0.028446 -0.027681 -0.009760)
 46:    843.80   0.000156    0.79  0.000058  ( 0.000005  0.007186  0.002473)
 47:    849.69   0.000247    1.25  0.000091  ( 0.003274  0.005782  0.006818)
 48:    867.18   0.004220   21.33  0.001519  (-0.027409  0.016721  0.022087)
 49:    872.72   0.011042   55.80  0.003948  ( 0.021014  0.020627  0.055510)
 50:    886.59   0.000219    1.11  0.000077  ( 0.007571  0.002615  0.003614)
 51:    939.11   0.001110    5.61  0.000369  (-0.019047 -0.002210  0.001016)
 52:    968.08   0.001345    6.80  0.000434  ( 0.015295 -0.013987  0.001988)
 53:    973.79   0.004767   24.09  0.001528  ( 0.037033 -0.011935  0.003716)
 54:    998.63   0.000776    3.92  0.000242  ( 0.004637 -0.005113 -0.013953)
 55:   1015.62   0.000015    0.07  0.000004  ( 0.001972  0.000646  0.000416)
 56:   1025.55   0.000457    2.31  0.000139  ( 0.004278  0.010952 -0.000893)
 57:   1028.67   0.000367    1.86  0.000111  (-0.005008 -0.008931  0.002562)
 58:   1031.40   0.000591    2.99  0.000179  ( 0.009721  0.009105  0.001198)
 59:   1040.20   0.007008   35.42  0.002102  ( 0.045473 -0.004409 -0.003899)
 60:   1051.92   0.002883   14.57  0.000855  (-0.018152 -0.022915  0.000877)
 61:   1053.48   0.000133    0.67  0.000039  (-0.004954 -0.003839 -0.000015)
 62:   1067.32   0.001819    9.19  0.000532  (-0.018667 -0.011115  0.007741)
 63:   1077.10   0.011776   59.51  0.003412  (-0.039407 -0.025518  0.034753)
 64:   1098.22   0.009277   46.88  0.002636  ( 0.047262  0.012888 -0.015372)
 65:   1108.78   0.018282   92.39  0.005145  ( 0.068319 -0.021546 -0.003704)
 66:   1127.28   0.000319    1.61  0.000088  (-0.007313 -0.003729 -0.004579)
 67:   1148.34   0.008701   43.97  0.002364  ( 0.002883 -0.044468  0.019461)
 68:   1156.53   0.000716    3.62  0.000193  (-0.013872 -0.000796 -0.000188)
 69:   1185.91   0.005724   28.93  0.001506  (-0.017050  0.009998  0.033399)
 70:   1186.25   0.046025  232.59  0.012108  (-0.018778 -0.044237 -0.098985)
 71:   1191.34   0.000600    3.03  0.000157  ( 0.012099  0.002493  0.002160)
 72:   1211.45   0.030362  153.44  0.007821  ( 0.058958  0.060393 -0.026413)
 73:   1214.58   0.002126   10.74  0.000546  ( 0.007502 -0.019325  0.010793)
 74:   1218.09   0.014948   75.54  0.003830  ( 0.023321 -0.050146  0.027767)
 75:   1233.11   0.002130   10.76  0.000539  ( 0.001140  0.023187  0.000105)
 76:   1272.12   0.064465  325.78  0.015814  ( 0.125466 -0.008443  0.000959)
 77:   1285.12   0.000713    3.60  0.000173  ( 0.002505  0.012878  0.000985)
 78:   1314.25   0.000588    2.97  0.000140  ( 0.004401  0.008202  0.007279)
 79:   1327.09   0.001716    8.67  0.000403  ( 0.006603  0.014349  0.012408)
 80:   1339.59   0.002027   10.25  0.000472  ( 0.003921  0.018539 -0.010640)
 81:   1348.51   0.017094   86.38  0.003956  ( 0.060110 -0.018394 -0.002047)
 82:   1354.93   0.040240  203.36  0.009268  ( 0.096196  0.003719 -0.000666)
 83:   1359.70   0.024895  125.81  0.005714  (-0.073785  0.013261  0.009674)
 84:   1367.12   0.003230   16.32  0.000737  ( 0.026057 -0.003666  0.006693)
 85:   1386.31   0.000975    4.93  0.000219  ( 0.002140 -0.014633  0.000835)
 86:   1396.79   0.004651   23.50  0.001039  (-0.026813 -0.010339 -0.014602)
 87:   1418.35   0.004588   23.19  0.001010  (-0.016009 -0.018537  0.020238)
 88:   1428.35   0.003278   16.57  0.000716  ( 0.017330 -0.020155 -0.003100)
 89:   1469.07   0.007734   39.08  0.001643  (-0.017888  0.030625 -0.019619)
 90:   1475.02   0.001412    7.13  0.000299  (-0.005098  0.013762 -0.009124)
 91:   1481.20   0.002548   12.88  0.000537  ( 0.005876 -0.009612 -0.020247)
 92:   1486.11   0.005132   25.93  0.001078  ( 0.018867 -0.016057  0.021537)
 93:   1504.85   0.003989   20.16  0.000827  (-0.025879  0.002040  0.012384)
 94:   1505.93   0.005623   28.42  0.001165  (-0.010769  0.031141 -0.008917)
 95:   1512.93   0.008949   45.23  0.001846  (-0.010479  0.027875 -0.030969)
 96:   1514.23   0.002390   12.08  0.000492  ( 0.016719  0.006182  0.013219)
 97:   1552.22   0.001734    8.77  0.000349  (-0.007123 -0.014123 -0.009925)
 98:   1574.90   0.013040   65.90  0.002584  (-0.050575 -0.003811  0.003400)
 99:   1669.92   0.000603    3.05  0.000113  (-0.005911  0.004493 -0.007591)
100:   1678.37   0.003687   18.63  0.000686  ( 0.003382  0.025617 -0.004234)
101:   1681.82   0.009186   46.42  0.001704  (-0.039631 -0.003226 -0.011111)
102:   1688.85   0.000123    0.62  0.000023  (-0.000308 -0.004444  0.001705)
103:   1703.11   0.018614   94.07  0.003411  ( 0.058132  0.003205 -0.004581)
104:   3075.82   0.000794    4.01  0.000081  ( 0.000743 -0.008249  0.003454)
105:   3084.81   0.002349   11.87  0.000238  (-0.001984 -0.007131 -0.013521)
106:   3097.19   0.000420    2.12  0.000042  ( 0.004081 -0.003521  0.003637)
107:   3106.73   0.002025   10.23  0.000203  ( 0.011821 -0.007112  0.003620)
108:   3143.34   0.000602    3.04  0.000060  ( 0.004770  0.005247  0.003080)
109:   3165.76   0.000984    4.97  0.000097  ( 0.007281 -0.006545 -0.001068)
110:   3184.94   0.000793    4.01  0.000078  (-0.000057 -0.004087 -0.007812)
111:   3194.61   0.001232    6.22  0.000120  ( 0.003835  0.009930 -0.002646)
112:   3197.59   0.000778    3.93  0.000076  (-0.007365  0.004487 -0.001260)
113:   3200.07   0.000053    0.27  0.000005  ( 0.002231  0.000003  0.000431)
114:   3208.77   0.002576   13.02  0.000251  (-0.012593  0.009202 -0.002691)
115:   3212.76   0.000164    0.83  0.000016  ( 0.001677  0.003566 -0.000618)
116:   3221.35   0.000957    4.84  0.000093  (-0.003459 -0.003765  0.008160)
117:   3229.34   0.000083    0.42  0.000008  (-0.001775 -0.001717  0.001389)
118:   3232.84   0.000372    1.88  0.000036  ( 0.001919  0.004853  0.002939)
119:   3233.17   0.000296    1.50  0.000029  ( 0.004665 -0.002455  0.000885)
120:   3244.62   0.000171    0.86  0.000016  ( 0.003727 -0.000031 -0.001598)
121:   3262.33   0.116434  588.41  0.011138  ( 0.089437 -0.050744  0.023744)
122:   3518.46   0.014153   71.53  0.001255  (-0.007456  0.033006  0.010505)

--------------------------
THERMOCHEMISTRY AT 298.15K
--------------------------

Temperature         ... 298.15 K
Pressure            ... 1.00 atm
Total Mass          ... 310.34 AMU

Throughout the following assumptions are being made:
  (1) The electronic state is orbitally nondegenerate
  (2) There are no thermally accessible electronically excited states
  (3) Hindered rotations indicated by low frequency modes are not
      treated as such but are treated as vibrations and this may
      cause some error
  (4) All equations used are the standard statistical mechanics
      equations for an ideal gas
  (5) All vibrations are strictly harmonic

freq.       7.68  E(vib)   ...       0.58
freq.      21.24  E(vib)   ...       0.56
freq.      27.86  E(vib)   ...       0.55
freq.      42.99  E(vib)   ...       0.53
freq.      46.72  E(vib)   ...       0.53
freq.      61.04  E(vib)   ...       0.51
freq.      84.55  E(vib)   ...       0.48
freq.     112.00  E(vib)   ...       0.45
freq.     119.13  E(vib)   ...       0.44
freq.     156.73  E(vib)   ...       0.40
freq.     191.64  E(vib)   ...       0.36
freq.     204.21  E(vib)   ...       0.35
freq.     214.69  E(vib)   ...       0.34
freq.     243.17  E(vib)   ...       0.31
freq.     268.39  E(vib)   ...       0.29
freq.     280.19  E(vib)   ...       0.28
freq.     302.80  E(vib)   ...       0.26
freq.     329.32  E(vib)   ...       0.24
freq.     370.13  E(vib)   ...       0.21
freq.     404.68  E(vib)   ...       0.19
freq.     412.55  E(vib)   ...       0.19
freq.     418.69  E(vib)   ...       0.18
freq.     421.80  E(vib)   ...       0.18
freq.     428.79  E(vib)   ...       0.18
freq.     501.49  E(vib)   ...       0.14
freq.     517.91  E(vib)   ...       0.13
freq.     524.95  E(vib)   ...       0.13
freq.     567.74  E(vib)   ...       0.11
freq.     585.68  E(vib)   ...       0.11
freq.     607.19  E(vib)   ...       0.10
freq.     632.27  E(vib)   ...       0.09
freq.     636.58  E(vib)   ...       0.09
freq.     659.54  E(vib)   ...       0.08
freq.     684.74  E(vib)   ...       0.07
freq.     734.38  E(vib)   ...       0.06
freq.     764.40  E(vib)   ...       0.06
freq.     769.67  E(vib)   ...       0.05
freq.     780.43  E(vib)   ...       0.05
freq.     816.02  E(vib)   ...       0.05
freq.     826.40  E(vib)   ...       0.04
freq.     843.80  E(vib)   ...       0.04
freq.     849.69  E(vib)   ...       0.04
freq.     867.18  E(vib)   ...       0.04
freq.     872.72  E(vib)   ...       0.04
freq.     886.59  E(vib)   ...       0.04
freq.     939.11  E(vib)   ...       0.03
freq.     968.08  E(vib)   ...       0.03
freq.     973.79  E(vib)   ...       0.03
freq.     998.63  E(vib)   ...       0.02
freq.    1015.62  E(vib)   ...       0.02
freq.    1025.55  E(vib)   ...       0.02
freq.    1028.67  E(vib)   ...       0.02
freq.    1031.40  E(vib)   ...       0.02
freq.    1040.20  E(vib)   ...       0.02
freq.    1051.92  E(vib)   ...       0.02
freq.    1053.48  E(vib)   ...       0.02
freq.    1067.32  E(vib)   ...       0.02
freq.    1077.10  E(vib)   ...       0.02
freq.    1098.22  E(vib)   ...       0.02
freq.    1108.78  E(vib)   ...       0.02
freq.    1127.28  E(vib)   ...       0.01
freq.    1148.34  E(vib)   ...       0.01
freq.    1156.53  E(vib)   ...       0.01
freq.    1185.91  E(vib)   ...       0.01
freq.    1186.25  E(vib)   ...       0.01
freq.    1191.34  E(vib)   ...       0.01
freq.    1211.45  E(vib)   ...       0.01
freq.    1214.58  E(vib)   ...       0.01
freq.    1218.09  E(vib)   ...       0.01
freq.    1233.11  E(vib)   ...       0.01
freq.    1272.12  E(vib)   ...       0.01
freq.    1285.12  E(vib)   ...       0.01
freq.    1314.25  E(vib)   ...       0.01
freq.    1327.09  E(vib)   ...       0.01
freq.    1339.59  E(vib)   ...       0.01
freq.    1348.51  E(vib)   ...       0.01
freq.    1354.93  E(vib)   ...       0.01
freq.    1359.70  E(vib)   ...       0.01
freq.    1367.12  E(vib)   ...       0.01
freq.    1386.31  E(vib)   ...       0.00
freq.    1396.79  E(vib)   ...       0.00
freq.    1418.35  E(vib)   ...       0.00
freq.    1428.35  E(vib)   ...       0.00
freq.    1469.07  E(vib)   ...       0.00
freq.    1475.02  E(vib)   ...       0.00
freq.    1481.20  E(vib)   ...       0.00
freq.    1486.11  E(vib)   ...       0.00
freq.    1504.85  E(vib)   ...       0.00
freq.    1505.93  E(vib)   ...       0.00
freq.    1512.93  E(vib)   ...       0.00
freq.    1514.23  E(vib)   ...       0.00
freq.    1552.22  E(vib)   ...       0.00
freq.    1574.90  E(vib)   ...       0.00
freq.    1669.92  E(vib)   ...       0.00
freq.    1678.37  E(vib)   ...       0.00
freq.    1681.82  E(vib)   ...       0.00
freq.    1688.85  E(vib)   ...       0.00
freq.    1703.11  E(vib)   ...       0.00
freq.    3075.82  E(vib)   ...       0.00
freq.    3084.81  E(vib)   ...       0.00
freq.    3097.19  E(vib)   ...       0.00
freq.    3106.73  E(vib)   ...       0.00
freq.    3143.34  E(vib)   ...       0.00
freq.    3165.76  E(vib)   ...       0.00
freq.    3184.94  E(vib)   ...       0.00
freq.    3194.61  E(vib)   ...       0.00
freq.    3197.59  E(vib)   ...       0.00
freq.    3200.07  E(vib)   ...       0.00
freq.    3208.77  E(vib)   ...       0.00
freq.    3212.76  E(vib)   ...       0.00
freq.    3221.35  E(vib)   ...       0.00
freq.    3229.34  E(vib)   ...       0.00
freq.    3232.84  E(vib)   ...       0.00
freq.    3233.17  E(vib)   ...       0.00
freq.    3244.62  E(vib)   ...       0.00
freq.    3262.33  E(vib)   ...       0.00
freq.    3518.46  E(vib)   ...       0.00

------------
INNER ENERGY
------------

The inner energy is: U= E(el) + E(ZPE) + E(vib) + E(rot) + E(trans)
    E(el)   - is the total energy from the electronic structure calculation
              = E(kin-el) + E(nuc-el) + E(el-el) + E(nuc-nuc)
    E(ZPE)  - the the zero temperature vibrational energy from the frequency calculation
    E(vib)  - the the finite temperature correction to E(ZPE) due to population
              of excited vibrational states
    E(rot)  - is the rotational thermal energy
    E(trans)- is the translational thermal energy

Summary of contributions to the inner energy U:
Electronic energy                ...  -1088.68537874 Eh
Zero point energy                ...      0.34027255 Eh     213.52 kcal/mol
Thermal vibrational correction   ...      0.01703504 Eh      10.69 kcal/mol
Thermal rotational correction    ...      0.00141627 Eh       0.89 kcal/mol
Thermal translational correction ...      0.00141627 Eh       0.89 kcal/mol
-----------------------------------------------------------------------
Total thermal energy                  -1088.32523861 Eh

Summary of corrections to the electronic energy:
(perhaps to be used in another calculation)
Total thermal correction                  0.01986758 Eh      12.47 kcal/mol

Rotational constants in cm-1:     0.014988     0.004683     0.004056

                             ****ORCA TERMINATED NORMALLY****
TOTAL RUN TIME: 0 days 3 hours 47 minutes 19 seconds 917 msec
