                         Program Version 5.0.3 -  RELEASE  -
|  1> ! wB97X-D3 TightOpt Freq def2-TZVPP def2/J RIJCOSX TightSCF defgrid3 CHELPG
|  2> %maxcore 3200
|  3>
|  4> %pal nprocs 8
|  5> end
|  6>
|  7> %chelpg
|  8> grid 0.1
|  9> rmax 3.0
| 10> end
| 11>
| 12>
| 13> *xyz 1 1
| 14>  C    -3.2947352093    2.4193279533    -1.7461468918
| 15>  N    -2.4576777266    2.0958935384    -0.5803045590
| 16>  C    -3.2185815889    1.6079314175    0.6015919843
| 17>  C    -2.2928357345    0.8198099273    1.5222520910
| 18>  C    -1.7102148419    -0.4163781023    0.7985810849
| 19>  C    -2.8202177356    -1.2703781265    0.2145400751
| 20>  C    -3.0507783481    -1.3437833943    -1.1527209411
| 21>  C    -4.0862355298    -2.1215239132    -1.6444620622
| 22>  C    -4.9020572100    -2.8244083865    -0.7757326464
| 23>  C    -4.6718638097    -2.7591746224    0.5890017812
| 24>  C    -3.6353657632    -1.9881737091    1.0825453682
| 25>  O    -0.8375749525    0.0102382295    -0.2527777190
| 26>  C    0.5239474446    0.1020864338    -0.0448348976
| 27>  C    1.2877693664    0.2290404389    -1.2034208722
| 28>  C    2.6578596742    0.3600449930    -1.1204035355
| 29>  C    3.2711121868    0.3636037678    0.1263654383
| 30>  C    2.5137668146    0.2414754516    1.2805022221
| 31>  C    1.1374306357    0.1141803726    1.1997811981
| 32>  C    4.7612803523    0.5544223952    0.2273416256
| 33>  F    5.4121167763    0.0809870676    -0.8397621571
| 34>  F    5.0738482146    1.8620358856    0.3193821658
| 35>  F    5.2817108047    -0.0385249401    1.3067141713
| 36>  H    -2.6760978636    2.7824050165    -2.5641293985
| 37>  H    -4.0229579856    3.1864568697    -1.4881380392
| 38>  H    -3.8244389459    1.5263934294    -2.0728274034
| 39>  H    -1.9029191700    2.9160693763    -0.3151849283
| 40>  H    -4.0120317848    0.9490552184    0.2417397860
| 41>  H    -3.6725123432    2.4516655834    1.1239827400
| 42>  H    -2.8625525634    0.4865733300    2.3882420931
| 43>  H    -1.4790222467    1.4555316914    1.8780471863
| 44>  H    -1.1517508083    -1.0267557082    1.5152719637
| 45>  H    -2.3999673581    -0.8255876707    -1.8416622354
| 46>  H    -4.2491504512    -2.1812147419    -2.7095268421
| 47>  H    -5.7065123173    -3.4307870510    -1.1604137245
| 48>  H    -5.2947256614    -3.3165592352    1.2705258622
| 49>  H    -3.4501258354    -1.9541641360    2.1458457411
| 50>  H    0.7963402675    0.2076485304    -2.1632483521
| 51>  H    3.2513302149    0.4488160421    -2.0164670756
| 52>  H    2.9957213945    0.2444395599    2.2455105242
| 53>  H    0.5732402473    0.0244400049    2.1142401210
| 54>  H    -1.7755457822    1.3190161977    -0.7979023084
| 55> *
| 56>
| 57>
| 58>                          ****END OF INPUT****
 Total Charge           Charge          ....    1
 Multiplicity           Mult            ....    1
 Number of Electrons    NEL             ....  162
Dispersion correction           -0.020255157
FINAL SINGLE POINT ENERGY     -1088.678987598204
Dispersion correction            ... done
Dispersion correction           -0.019730762
FINAL SINGLE POINT ENERGY     -1088.680254093650
Dispersion correction            ... done
Dispersion correction           -0.020001263
FINAL SINGLE POINT ENERGY     -1088.681278889035
Dispersion correction            ... done
FINAL SINGLE POINT ENERGY     -1088.681551219504
FINAL SINGLE POINT ENERGY     -1088.681639529440
FINAL SINGLE POINT ENERGY     -1088.681718255378
FINAL SINGLE POINT ENERGY     -1088.681791424739
FINAL SINGLE POINT ENERGY     -1088.681858586162
FINAL SINGLE POINT ENERGY     -1088.681903111534
FINAL SINGLE POINT ENERGY     -1088.681911252850
FINAL SINGLE POINT ENERGY     -1088.681931066019
FINAL SINGLE POINT ENERGY     -1088.681935048115
FINAL SINGLE POINT ENERGY     -1088.681936673595
Dispersion correction           -0.020382609
FINAL SINGLE POINT ENERGY     -1088.681937509027
Dispersion correction            ... done
Dispersion correction           -0.020389834
FINAL SINGLE POINT ENERGY     -1088.681937628881
Dispersion correction            ... done
                    ***********************HURRAY********************

CARTESIAN COORDINATES (ANGSTROEM)
---------------------------------
  C     -3.028983    2.475489   -1.761781
  N     -2.177282    1.896979   -0.692777
  C     -2.923816    1.522163    0.556124
  C     -2.081900    0.625027    1.447353
  C     -1.691733   -0.703329    0.774461
  C     -2.900779   -1.434014    0.228806
  C     -3.099150   -1.631928   -1.131872
  C     -4.251592   -2.261250   -1.586807
  C     -5.209747   -2.699318   -0.689013
  C     -5.008510   -2.517845    0.672577
  C     -3.861960   -1.889883    1.127545
  O     -0.803261   -0.439865   -0.313354
  C      0.511974   -0.114556   -0.080657
  C      1.217704    0.309671   -1.201185
  C      2.546696    0.665822   -1.084047
  C      3.178167    0.597812    0.150490
  C      2.473314    0.166393    1.260014
  C      1.136635   -0.191205    1.155260
  C      4.613337    1.039369    0.288810
  F      5.301996    0.839241   -0.839122
  F      4.684436    2.350846    0.570030
  F      5.239886    0.388505    1.273058
  H     -2.404032    2.750101   -2.607316
  H     -3.539833    3.353490   -1.374781
  H     -3.754846    1.724468   -2.062970
  H     -1.428621    2.544819   -0.452537
  H     -3.827673    1.008920    0.229934
  H     -3.207039    2.446538    1.056705
  H     -2.668600    0.414340    2.341401
  H     -1.184312    1.149313    1.783755
  H     -1.192437   -1.344774    1.502247
  H     -2.339894   -1.333445   -1.842277
  H     -4.389422   -2.421549   -2.648289
  H     -6.103546   -3.194324   -1.044716
  H     -5.742720   -2.874967    1.382663
  H     -3.711609   -1.769845    2.194788
  H      0.726085    0.322253   -2.166158
  H      3.098322    0.984117   -1.958216
  H      2.965992    0.100304    2.220681
  H      0.616754   -0.533609    2.037976
  H     -1.698975    1.041905   -1.014861

 Multiplicity           Mult            ....    1
 Number of Electrons    NEL             ....  162
 Basis Dimension        Dim             ....  948

ORBITAL ENERGIES
----------------

  NO   OCC          E(Eh)            E(eV)
   0   2.0000     -24.897797      -677.5035
   1   2.0000     -24.897771      -677.5028
   2   2.0000     -24.893864      -677.3965
   3   2.0000     -19.414460      -528.2943
   4   2.0000     -14.704810      -400.1382
   5   2.0000     -10.614238      -288.8281
   6   2.0000     -10.495229      -285.5897
   7   2.0000     -10.491082      -285.4769
   8   2.0000     -10.490911      -285.4722
   9   2.0000     -10.478952      -285.1468
  10   2.0000     -10.442639      -284.1586
  11   2.0000     -10.417000      -283.4610
  12   2.0000     -10.410906      -283.2951
  13   2.0000     -10.410589      -283.2865
  14   2.0000     -10.409917      -283.2683
  15   2.0000     -10.409540      -283.2580
  16   2.0000     -10.407694      -283.2078
  17   2.0000     -10.400657      -283.0163
  18   2.0000     -10.400417      -283.0097
  19   2.0000     -10.395325      -282.8712
  20   2.0000     -10.394947      -282.8609
  21   2.0000     -10.391113      -282.7566
  22   2.0000      -1.516918       -41.2774
  23   2.0000      -1.426546       -38.8183
  24   2.0000      -1.422007       -38.6948
  25   2.0000      -1.338169       -36.4134
  26   2.0000      -1.290410       -35.1139
  27   2.0000      -1.119807       -30.4715
  28   2.0000      -1.104145       -30.0453
  29   2.0000      -1.076238       -29.2859
  30   2.0000      -1.028695       -27.9922
  31   2.0000      -1.004508       -27.3340
  32   2.0000      -0.998566       -27.1724
  33   2.0000      -0.987407       -26.8687
  34   2.0000      -0.982961       -26.7477
  35   2.0000      -0.954087       -25.9620
  36   2.0000      -0.917438       -24.9648
  37   2.0000      -0.888160       -24.1681
  38   2.0000      -0.870595       -23.6901
  39   2.0000      -0.858413       -23.3586
  40   2.0000      -0.847090       -23.0505
  41   2.0000      -0.829612       -22.5749
  42   2.0000      -0.812815       -22.1178
  43   2.0000      -0.790502       -21.5107
  44   2.0000      -0.782618       -21.2961
  45   2.0000      -0.781788       -21.2735
  46   2.0000      -0.781229       -21.2583
  47   2.0000      -0.770866       -20.9763
  48   2.0000      -0.755778       -20.5658
  49   2.0000      -0.745770       -20.2934
  50   2.0000      -0.730859       -19.8877
  51   2.0000      -0.706684       -19.2299
  52   2.0000      -0.691834       -18.8258
  53   2.0000      -0.686494       -18.6805
  54   2.0000      -0.680634       -18.5210
  55   2.0000      -0.674718       -18.3600
  56   2.0000      -0.672864       -18.3096
  57   2.0000      -0.668587       -18.1932
  58   2.0000      -0.657665       -17.8960
  59   2.0000      -0.655855       -17.8467
  60   2.0000      -0.653953       -17.7950
  61   2.0000      -0.646788       -17.6000
  62   2.0000      -0.645080       -17.5535
  63   2.0000      -0.638702       -17.3800
  64   2.0000      -0.633240       -17.2313
  65   2.0000      -0.624694       -16.9988
  66   2.0000      -0.618794       -16.8382
  67   2.0000      -0.611926       -16.6514
  68   2.0000      -0.610421       -16.6104
  69   2.0000      -0.596096       -16.2206
  70   2.0000      -0.593792       -16.1579
  71   2.0000      -0.586970       -15.9723
  72   2.0000      -0.564816       -15.3694
  73   2.0000      -0.561553       -15.2806
  74   2.0000      -0.557865       -15.1803
  75   2.0000      -0.551294       -15.0015
  76   2.0000      -0.548062       -14.9135
  77   2.0000      -0.473033       -12.8719
  78   2.0000      -0.461592       -12.5606
  79   2.0000      -0.456031       -12.4092
  80   2.0000      -0.447756       -12.1841
  81   0.0000      -0.073318        -1.9951
  82   0.0000      -0.064597        -1.7578
  83   0.0000      -0.059413        -1.6167
  84   0.0000      -0.057097        -1.5537
  85   0.0000      -0.052132        -1.4186

MULLIKEN ATOMIC CHARGES
-----------------------
   0 C :   -0.159944
   1 N :    0.076719
   2 C :   -0.173491
   3 C :   -0.203204
   4 C :    0.210490
   5 C :    0.023473
   6 C :   -0.228135
   7 C :   -0.127462
   8 C :   -0.097420
   9 C :   -0.129056
  10 C :   -0.211170
  11 O :   -0.341750
  12 C :    0.280899
  13 C :   -0.270592
  14 C :   -0.076050
  15 C :   -0.075671
  16 C :   -0.134992
  17 C :   -0.195102
  18 C :    0.546552
  19 F :   -0.163348
  20 F :   -0.164346
  21 F :   -0.162410
  22 H :    0.141264
  23 H :    0.138429
  24 H :    0.136540
  25 H :    0.178296
  26 H :    0.157843
  27 H :    0.159755
  28 H :    0.121221
  29 H :    0.125255
  30 H :    0.144338
  31 H :    0.146301
  32 H :    0.146743
  33 H :    0.150122
  34 H :    0.148397
  35 H :    0.126341
  36 H :    0.139316
  37 H :    0.148258
  38 H :    0.147028
  39 H :    0.131423
  40 H :    0.189139
Sum of atomic charges:    1.0000000

LOEWDIN ATOMIC CHARGES
----------------------
   0 C :    0.075064
   1 N :    0.526731
   2 C :    0.022053
   3 C :   -0.006841
   4 C :   -0.134965
   5 C :   -0.085452
   6 C :   -0.020811
   7 C :   -0.000412
   8 C :    0.006979
   9 C :    0.007515
  10 C :   -0.003513
  11 O :    0.311196
  12 C :   -0.209370
  13 C :   -0.019256
  14 C :    0.031850
  15 C :   -0.090020
  16 C :    0.034569
  17 C :   -0.016726
  18 C :   -0.640511
  19 F :    0.214578
  20 F :    0.199152
  21 F :    0.215717
  22 H :    0.027066
  23 H :    0.029398
  24 H :    0.029903
  25 H :    0.046909
  26 H :    0.039110
  27 H :    0.033419
  28 H :    0.046278
  29 H :    0.031208
  30 H :    0.037804
  31 H :    0.015602
  32 H :    0.028676
  33 H :    0.030208
  34 H :    0.030847
  35 H :    0.027072
  36 H :    0.024623
  37 H :    0.038068
  38 H :    0.038705
  39 H :    0.021969
  40 H :    0.005607

  Mayer bond orders larger than 0.100000
B(  0-C ,  1-N ) :   0.8926 B(  0-C , 22-H ) :   0.9717 B(  0-C , 23-H ) :   0.9727
B(  0-C , 24-H ) :   0.9770 B(  1-N ,  2-C ) :   0.8638 B(  1-N , 25-H ) :   0.9535
B(  1-N , 40-H ) :   0.9100 B(  2-C ,  3-C ) :   0.9188 B(  2-C , 26-H ) :   0.9937
B(  2-C , 27-H ) :   0.9864 B(  3-C ,  4-C ) :   0.8977 B(  3-C , 28-H ) :   0.9962
B(  3-C , 29-H ) :   1.0098 B(  4-C ,  5-C ) :   0.9331 B(  4-C , 11-O ) :   0.8297
B(  4-C , 30-H ) :   0.9962 B(  5-C ,  6-C ) :   1.2919 B(  5-C , 10-C ) :   1.3743
B(  6-C ,  7-C ) :   1.4535 B(  6-C , 31-H ) :   0.9751 B(  7-C ,  8-C ) :   1.4507
B(  7-C , 32-H ) :   0.9700 B(  8-C ,  9-C ) :   1.4174 B(  8-C , 33-H ) :   0.9670
B(  9-C , 10-C ) :   1.4888 B(  9-C , 34-H ) :   0.9677 B( 10-C , 35-H ) :   0.9812
B( 11-O , 12-C ) :   0.9993 B( 12-C , 13-C ) :   1.3688 B( 12-C , 17-C ) :   1.3508
B( 13-C , 14-C ) :   1.4883 B( 13-C , 36-H ) :   0.9668 B( 14-C , 15-C ) :   1.3979
B( 14-C , 37-H ) :   0.9482 B( 15-C , 16-C ) :   1.4414 B( 15-C , 18-C ) :   0.9916
B( 16-C , 17-C ) :   1.4693 B( 16-C , 38-H ) :   0.9399 B( 17-C , 39-H ) :   0.9739
B( 18-C , 19-F ) :   1.1350 B( 18-C , 20-F ) :   1.1328 B( 18-C , 21-F ) :   1.1364

Dispersion correction           -0.020392377
FINAL SINGLE POINT ENERGY     -1088.681937090889

DIPOLE MOMENT
-------------
                                X             Y             Z
Electronic contribution:     45.78920       2.09859       2.86648
Nuclear contribution   :    -50.73246      -0.15348      -3.37737
                        -----------------------------------------
Total Dipole Moment    :     -4.94326       1.94511      -0.51089
                        -----------------------------------------
Magnitude (a.u.)       :      5.33669
Magnitude (Debye)      :     13.56479

Dispersion correction in the Hessian             ... done   (      1.1 sec)

VIBRATIONAL FREQUENCIES
-----------------------

Scaling factor for frequencies =  1.000000000  (already applied!)

   0:         0.00 cm**-1
   1:         0.00 cm**-1
   2:         0.00 cm**-1
   3:         0.00 cm**-1
   4:         0.00 cm**-1
   5:         0.00 cm**-1
   6:         4.15 cm**-1
   7:        16.89 cm**-1
   8:        29.61 cm**-1
   9:        40.97 cm**-1
  10:        47.38 cm**-1
  11:        65.65 cm**-1
  12:        86.82 cm**-1
  13:        99.65 cm**-1
  14:       120.10 cm**-1
  15:       159.31 cm**-1
  16:       182.28 cm**-1
  17:       196.69 cm**-1
  18:       224.81 cm**-1
  19:       239.23 cm**-1
  20:       269.96 cm**-1
  21:       279.11 cm**-1
  22:       310.17 cm**-1
  23:       348.95 cm**-1
  24:       377.99 cm**-1
  25:       393.64 cm**-1
  26:       404.91 cm**-1
  27:       418.61 cm**-1
  28:       425.37 cm**-1
  29:       427.83 cm**-1
  30:       487.96 cm**-1
  31:       508.69 cm**-1
  32:       524.20 cm**-1
  33:       572.92 cm**-1
  34:       585.67 cm**-1
  35:       610.07 cm**-1
  36:       633.15 cm**-1
  37:       638.29 cm**-1
  38:       655.04 cm**-1
  39:       685.47 cm**-1
  40:       734.60 cm**-1
  41:       765.97 cm**-1
  42:       772.30 cm**-1
  43:       781.16 cm**-1
  44:       817.07 cm**-1
  45:       831.46 cm**-1
  46:       844.97 cm**-1
  47:       853.41 cm**-1
  48:       875.63 cm**-1
  49:       878.87 cm**-1
  50:       887.66 cm**-1
  51:       920.62 cm**-1
  52:       963.22 cm**-1
  53:       969.14 cm**-1
  54:      1001.85 cm**-1
  55:      1020.00 cm**-1
  56:      1026.66 cm**-1
  57:      1029.12 cm**-1
  58:      1032.23 cm**-1
  59:      1038.11 cm**-1
  60:      1040.50 cm**-1
  61:      1053.72 cm**-1
  62:      1068.65 cm**-1
  63:      1074.79 cm**-1
  64:      1088.97 cm**-1
  65:      1109.26 cm**-1
  66:      1128.44 cm**-1
  67:      1145.02 cm**-1
  68:      1156.40 cm**-1
  69:      1182.81 cm**-1
  70:      1184.80 cm**-1
  71:      1191.56 cm**-1
  72:      1210.33 cm**-1
  73:      1218.09 cm**-1
  74:      1219.55 cm**-1
  75:      1239.82 cm**-1
  76:      1272.49 cm**-1
  77:      1288.12 cm**-1
  78:      1307.51 cm**-1
  79:      1326.48 cm**-1
  80:      1339.57 cm**-1
  81:      1347.55 cm**-1
  82:      1348.84 cm**-1
  83:      1357.73 cm**-1
  84:      1366.75 cm**-1
  85:      1383.77 cm**-1
  86:      1400.78 cm**-1
  87:      1419.77 cm**-1
  88:      1425.95 cm**-1
  89:      1465.55 cm**-1
  90:      1472.82 cm**-1
  91:      1480.17 cm**-1
  92:      1485.02 cm**-1
  93:      1504.17 cm**-1
  94:      1505.67 cm**-1
  95:      1510.11 cm**-1
  96:      1513.61 cm**-1
  97:      1553.67 cm**-1
  98:      1573.56 cm**-1
  99:      1669.01 cm**-1
 100:      1673.69 cm**-1
 101:      1684.36 cm**-1
 102:      1689.96 cm**-1
 103:      1702.31 cm**-1
 104:      3082.80 cm**-1
 105:      3096.98 cm**-1
 106:      3101.85 cm**-1
 107:      3107.52 cm**-1
 108:      3141.27 cm**-1
 109:      3166.71 cm**-1
 110:      3187.13 cm**-1
 111:      3198.26 cm**-1
 112:      3200.22 cm**-1
 113:      3205.39 cm**-1
 114:      3207.29 cm**-1
 115:      3217.47 cm**-1
 116:      3224.70 cm**-1
 117:      3226.26 cm**-1
 118:      3233.08 cm**-1
 119:      3233.19 cm**-1
 120:      3241.36 cm**-1
 121:      3294.72 cm**-1
 122:      3510.42 cm**-1

IR SPECTRUM
-----------

 Mode   freq       eps      Int      T**2         TX        TY        TZ
       cm**-1   L/(mol*cm) km/mol    a.u.
----------------------------------------------------------------------------
  6:      4.15   0.000000    0.00  0.000000  ( 0.000000  0.000000  0.000000)
  7:     16.89   0.000830    4.19  0.015325  (-0.115587  0.044240  0.002805)
  8:     29.61   0.000884    4.47  0.009320  (-0.067944 -0.067910 -0.009581)
  9:     40.97   0.000076    0.38  0.000579  ( 0.013650  0.013789  0.014222)
 10:     47.38   0.000102    0.51  0.000669  (-0.012725 -0.009011  0.020642)
 11:     65.65   0.000385    1.94  0.001828  ( 0.026496 -0.025116  0.022251)
 12:     86.82   0.000075    0.38  0.000270  (-0.011114 -0.002972 -0.011751)
 13:     99.65   0.001713    8.66  0.005364  (-0.066066  0.005367 -0.031147)
 14:    120.10   0.000257    1.30  0.000667  (-0.019671  0.015802  0.005512)
 15:    159.31   0.000204    1.03  0.000400  (-0.011969  0.011578  0.011095)
 16:    182.28   0.001326    6.70  0.002270  ( 0.004710 -0.047088  0.005565)
 17:    196.69   0.001236    6.24  0.001960  (-0.027726  0.032220 -0.012387)
 18:    224.81   0.000257    1.30  0.000357  ( 0.009602  0.008284 -0.013999)
 19:    239.23   0.001953    9.87  0.002548  (-0.005731  0.049490 -0.008111)
 20:    269.96   0.001238    6.26  0.001431  (-0.008902  0.036670 -0.002699)
 21:    279.11   0.000082    0.41  0.000092  ( 0.007557 -0.002799  0.005181)
 22:    310.17   0.000868    4.39  0.000873  ( 0.014874 -0.024672 -0.006598)
 23:    348.95   0.001346    6.80  0.001204  ( 0.015715 -0.030917 -0.001103)
 24:    377.99   0.000534    2.70  0.000441  ( 0.010179  0.018072 -0.003322)
 25:    393.64   0.000263    1.33  0.000209  ( 0.008007 -0.008176  0.008818)
 26:    404.91   0.000962    4.86  0.000742  ( 0.016362 -0.000647  0.021763)
 27:    418.61   0.000027    0.14  0.000020  ( 0.001936  0.002876 -0.002821)
 28:    425.37   0.000096    0.48  0.000070  (-0.002952  0.000172 -0.007832)
 29:    427.83   0.000042    0.21  0.000030  ( 0.004838 -0.002649 -0.000177)
 30:    487.96   0.000720    3.64  0.000461  ( 0.019694 -0.002074  0.008271)
 31:    508.69   0.000858    4.33  0.000526  (-0.013835  0.018257  0.001216)
 32:    524.20   0.001121    5.67  0.000668  ( 0.015292 -0.020517 -0.003571)
 33:    572.92   0.000749    3.79  0.000408  (-0.016126  0.011363 -0.004344)
 34:    585.67   0.000091    0.46  0.000048  ( 0.006903 -0.000204  0.000826)
 35:    610.07   0.002749   13.89  0.001406  (-0.016215  0.033030  0.007241)
 36:    633.15   0.002365   11.95  0.001166  (-0.030056 -0.016034 -0.002319)
 37:    638.29   0.000263    1.33  0.000129  (-0.007483 -0.005809 -0.006239)
 38:    655.04   0.001221    6.17  0.000582  ( 0.022950  0.007374 -0.000659)
 39:    685.47   0.003502   17.70  0.001594  (-0.039009 -0.006700 -0.005244)
 40:    734.60   0.007104   35.90  0.003018  ( 0.027943 -0.047209  0.002909)
 41:    765.97   0.000623    3.15  0.000254  ( 0.010025 -0.012373  0.000593)
 42:    772.30   0.000188    0.95  0.000076  ( 0.006271 -0.002696  0.005419)
 43:    781.16   0.009999   50.53  0.003994  ( 0.019168 -0.060176  0.002405)
 44:    817.07   0.002613   13.20  0.000998  (-0.024255 -0.013896 -0.014714)
 45:    831.46   0.002246   11.35  0.000843  (-0.001242 -0.026934 -0.010763)
 46:    844.97   0.000918    4.64  0.000339  ( 0.017077 -0.006820 -0.000872)
 47:    853.41   0.000537    2.71  0.000196  ( 0.010817  0.008241  0.003394)
 48:    875.63   0.010089   50.99  0.003596  ( 0.002145  0.059052  0.010191)
 49:    878.87   0.005156   26.06  0.001831  ( 0.028095 -0.032056 -0.003724)
 50:    887.66   0.000051    0.26  0.000018  ( 0.003426  0.000378 -0.002458)
 51:    920.62   0.000407    2.06  0.000138  ( 0.007815  0.006506  0.005885)
 52:    963.22   0.002971   15.02  0.000963  ( 0.024134 -0.018241  0.006889)
 53:    969.14   0.000331    1.67  0.000106  ( 0.008197  0.006239 -0.000591)
 54:   1001.85   0.000788    3.98  0.000245  ( 0.003247  0.014427  0.005159)
 55:   1020.00   0.000129    0.65  0.000040  (-0.006093 -0.000713  0.001367)
 56:   1026.66   0.000943    4.77  0.000287  (-0.012568 -0.011271  0.001338)
 57:   1029.12   0.000990    5.00  0.000300  (-0.013872 -0.010349 -0.000733)
 58:   1032.23   0.000198    1.00  0.000060  ( 0.007029  0.002171 -0.002411)
 59:   1038.11   0.002972   15.02  0.000893  ( 0.029433  0.003126  0.004147)
 60:   1040.50   0.006430   32.50  0.001929  (-0.038352 -0.019958  0.007709)
 61:   1053.72   0.000020    0.10  0.000006  (-0.002355 -0.000320 -0.000646)
 62:   1068.65   0.005157   26.06  0.001506  ( 0.032439  0.015916 -0.014155)
 63:   1074.79   0.008700   43.97  0.002526  (-0.031218 -0.020034  0.033913)
 64:   1088.97   0.011937   60.32  0.003421  ( 0.054508  0.015599 -0.014362)
 65:   1109.26   0.018541   93.70  0.005216  (-0.065415 -0.023654 -0.019426)
 66:   1128.44   0.000076    0.38  0.000021  ( 0.001756  0.002120  0.003666)
 67:   1145.02   0.007601   38.41  0.002072  (-0.009634  0.008555 -0.043654)
 68:   1156.40   0.001423    7.19  0.000384  (-0.011715 -0.002846  0.015450)
 69:   1182.81   0.002794   14.12  0.000737  (-0.025357 -0.007977 -0.005517)
 70:   1184.80   0.049909  252.22  0.013146  (-0.026317  0.109278  0.022609)
 71:   1191.56   0.000259    1.31  0.000068  ( 0.008106  0.000620 -0.001349)
 72:   1210.33   0.012542   63.38  0.003234  (-0.051303 -0.004124  0.024181)
 73:   1218.09   0.015287   77.25  0.003916  ( 0.015105  0.020363 -0.057214)
 74:   1219.55   0.017491   88.39  0.004476  (-0.008513  0.012138 -0.065238)
 75:   1239.82   0.006390   32.29  0.001608  ( 0.039439  0.007167  0.001220)
 76:   1272.49   0.049345  249.37  0.012101  (-0.109035 -0.012102 -0.008142)
 77:   1288.12   0.021224  107.26  0.005142  (-0.068657 -0.020683  0.000312)
 78:   1307.51   0.002095   10.59  0.000500  (-0.018432  0.005679  0.011315)
 79:   1326.48   0.002531   12.79  0.000595  ( 0.013053  0.007159  0.019332)
 80:   1339.57   0.008911   45.03  0.002076  ( 0.043349  0.006726 -0.012310)
 81:   1347.55   0.023662  119.58  0.005480  (-0.071556 -0.011505 -0.015065)
 82:   1348.84   0.003309   16.72  0.000766  (-0.027088  0.003702 -0.004263)
 83:   1357.73   0.050721  256.32  0.011658  ( 0.105301  0.023858  0.000401)
 84:   1366.75   0.001004    5.07  0.000229  ( 0.012316  0.003729  0.007975)
 85:   1383.77   0.001538    7.77  0.000347  (-0.001213 -0.018475 -0.002003)
 86:   1400.78   0.006248   31.57  0.001392  (-0.034560 -0.001656 -0.013955)
 87:   1419.77   0.005214   26.35  0.001146  (-0.024900 -0.013038  0.018866)
 88:   1425.95   0.003052   15.42  0.000668  ( 0.000846 -0.025743 -0.002099)
 89:   1465.55   0.007940   40.13  0.001691  (-0.014919  0.028578 -0.025523)
 90:   1472.82   0.002090   10.56  0.000443  ( 0.005053 -0.003008  0.020206)
 91:   1480.17   0.003463   17.50  0.000730  (-0.016112  0.016963 -0.013523)
 92:   1485.02   0.003033   15.33  0.000637  ( 0.003833  0.006117  0.024191)
 93:   1504.17   0.002412   12.19  0.000500  ( 0.012350 -0.001493 -0.018593)
 94:   1505.67   0.006945   35.10  0.001439  (-0.001223  0.037564 -0.005186)
 95:   1510.11   0.004447   22.47  0.000919  (-0.010875  0.010893 -0.026117)
 96:   1513.61   0.001850    9.35  0.000381  (-0.019069  0.002308  0.003518)
 97:   1553.67   0.002267   11.46  0.000455  (-0.017234 -0.010243 -0.007308)
 98:   1573.56   0.016017   80.94  0.003176  (-0.054474 -0.014048  0.003420)
 99:   1669.01   0.001586    8.01  0.000296  (-0.006981  0.002141 -0.015594)
100:   1673.69   0.008754   44.24  0.001632  ( 0.035603 -0.003722  0.018731)
101:   1684.36   0.015780   79.75  0.002924  (-0.052608  0.007577  0.009928)
102:   1689.96   0.000584    2.95  0.000108  ( 0.006899  0.007640 -0.001359)
103:   1702.31   0.019934  100.74  0.003654  ( 0.058925  0.012953 -0.003799)
104:   3082.80   0.001592    8.04  0.000161  (-0.008674 -0.008630 -0.003376)
105:   3096.98   0.000364    1.84  0.000037  ( 0.002991 -0.004419  0.002863)
106:   3101.85   0.001032    5.22  0.000104  (-0.003895  0.006084 -0.007186)
107:   3107.52   0.001508    7.62  0.000151  ( 0.007649 -0.009625  0.000569)
108:   3141.27   0.000821    4.15  0.000082  (-0.008340 -0.003453 -0.000317)
109:   3166.71   0.000465    2.35  0.000046  ( 0.000366 -0.006509 -0.001820)
110:   3187.13   0.000900    4.55  0.000088  ( 0.004634  0.003315  0.007458)
111:   3198.26   0.000214    1.08  0.000021  ( 0.002620 -0.003728  0.000284)
112:   3200.22   0.000048    0.24  0.000005  (-0.001821  0.001143  0.000096)
113:   3205.39   0.001142    5.77  0.000111  ( 0.009791 -0.001336  0.003674)
114:   3207.29   0.000113    0.57  0.000011  ( 0.002102  0.002523  0.000445)
115:   3217.47   0.000286    1.45  0.000028  (-0.002376 -0.002824 -0.003761)
116:   3224.70   0.001103    5.58  0.000107  ( 0.004435  0.003683 -0.008575)
117:   3226.26   0.000267    1.35  0.000026  (-0.004211 -0.001951  0.002065)
118:   3233.08   0.000163    0.83  0.000016  (-0.003963 -0.000260  0.000022)
119:   3233.19   0.000369    1.87  0.000036  (-0.004450 -0.002575 -0.003036)
120:   3241.36   0.000922    4.66  0.000089  ( 0.009099  0.002420  0.000387)
121:   3294.72   0.071752  362.60  0.006796  ( 0.055422 -0.060502  0.007995)
122:   3510.42   0.009901   50.03  0.000880  ( 0.014364  0.025636  0.004072)

--------------------------
THERMOCHEMISTRY AT 298.15K
--------------------------

Temperature         ... 298.15 K
Pressure            ... 1.00 atm
Total Mass          ... 310.34 AMU

Throughout the following assumptions are being made:
  (1) The electronic state is orbitally nondegenerate
  (2) There are no thermally accessible electronically excited states
  (3) Hindered rotations indicated by low frequency modes are not
      treated as such but are treated as vibrations and this may
      cause some error
  (4) All equations used are the standard statistical mechanics
      equations for an ideal gas
  (5) All vibrations are strictly harmonic

freq.       4.15  E(vib)   ...       0.59
freq.      16.89  E(vib)   ...       0.57
freq.      29.61  E(vib)   ...       0.55
freq.      40.97  E(vib)   ...       0.54
freq.      47.38  E(vib)   ...       0.53
freq.      65.65  E(vib)   ...       0.50
freq.      86.82  E(vib)   ...       0.48
freq.      99.65  E(vib)   ...       0.46
freq.     120.10  E(vib)   ...       0.44
freq.     159.31  E(vib)   ...       0.39
freq.     182.28  E(vib)   ...       0.37
freq.     196.69  E(vib)   ...       0.36
freq.     224.81  E(vib)   ...       0.33
freq.     239.23  E(vib)   ...       0.31
freq.     269.96  E(vib)   ...       0.29
freq.     279.11  E(vib)   ...       0.28
freq.     310.17  E(vib)   ...       0.26
freq.     348.95  E(vib)   ...       0.23
freq.     377.99  E(vib)   ...       0.21
freq.     393.64  E(vib)   ...       0.20
freq.     404.91  E(vib)   ...       0.19
freq.     418.61  E(vib)   ...       0.18
freq.     425.37  E(vib)   ...       0.18
freq.     427.83  E(vib)   ...       0.18
freq.     487.96  E(vib)   ...       0.15
freq.     508.69  E(vib)   ...       0.14
freq.     524.20  E(vib)   ...       0.13
freq.     572.92  E(vib)   ...       0.11
freq.     585.67  E(vib)   ...       0.11
freq.     610.07  E(vib)   ...       0.10
freq.     633.15  E(vib)   ...       0.09
freq.     638.29  E(vib)   ...       0.09
freq.     655.04  E(vib)   ...       0.08
freq.     685.47  E(vib)   ...       0.07
freq.     734.60  E(vib)   ...       0.06
freq.     765.97  E(vib)   ...       0.06
freq.     772.30  E(vib)   ...       0.05
freq.     781.16  E(vib)   ...       0.05
freq.     817.07  E(vib)   ...       0.05
freq.     831.46  E(vib)   ...       0.04
freq.     844.97  E(vib)   ...       0.04
freq.     853.41  E(vib)   ...       0.04
freq.     875.63  E(vib)   ...       0.04
freq.     878.87  E(vib)   ...       0.04
freq.     887.66  E(vib)   ...       0.04
freq.     920.62  E(vib)   ...       0.03
freq.     963.22  E(vib)   ...       0.03
freq.     969.14  E(vib)   ...       0.03
freq.    1001.85  E(vib)   ...       0.02
freq.    1020.00  E(vib)   ...       0.02
freq.    1026.66  E(vib)   ...       0.02
freq.    1029.12  E(vib)   ...       0.02
freq.    1032.23  E(vib)   ...       0.02
freq.    1038.11  E(vib)   ...       0.02
freq.    1040.50  E(vib)   ...       0.02
freq.    1053.72  E(vib)   ...       0.02
freq.    1068.65  E(vib)   ...       0.02
freq.    1074.79  E(vib)   ...       0.02
freq.    1088.97  E(vib)   ...       0.02
freq.    1109.26  E(vib)   ...       0.02
freq.    1128.44  E(vib)   ...       0.01
freq.    1145.02  E(vib)   ...       0.01
freq.    1156.40  E(vib)   ...       0.01
freq.    1182.81  E(vib)   ...       0.01
freq.    1184.80  E(vib)   ...       0.01
freq.    1191.56  E(vib)   ...       0.01
freq.    1210.33  E(vib)   ...       0.01
freq.    1218.09  E(vib)   ...       0.01
freq.    1219.55  E(vib)   ...       0.01
freq.    1239.82  E(vib)   ...       0.01
freq.    1272.49  E(vib)   ...       0.01
freq.    1288.12  E(vib)   ...       0.01
freq.    1307.51  E(vib)   ...       0.01
freq.    1326.48  E(vib)   ...       0.01
freq.    1339.57  E(vib)   ...       0.01
freq.    1347.55  E(vib)   ...       0.01
freq.    1348.84  E(vib)   ...       0.01
freq.    1357.73  E(vib)   ...       0.01
freq.    1366.75  E(vib)   ...       0.01
freq.    1383.77  E(vib)   ...       0.00
freq.    1400.78  E(vib)   ...       0.00
freq.    1419.77  E(vib)   ...       0.00
freq.    1425.95  E(vib)   ...       0.00
freq.    1465.55  E(vib)   ...       0.00
freq.    1472.82  E(vib)   ...       0.00
freq.    1480.17  E(vib)   ...       0.00
freq.    1485.02  E(vib)   ...       0.00
freq.    1504.17  E(vib)   ...       0.00
freq.    1505.67  E(vib)   ...       0.00
freq.    1510.11  E(vib)   ...       0.00
freq.    1513.61  E(vib)   ...       0.00
freq.    1553.67  E(vib)   ...       0.00
freq.    1573.56  E(vib)   ...       0.00
freq.    1669.01  E(vib)   ...       0.00
freq.    1673.69  E(vib)   ...       0.00
freq.    1684.36  E(vib)   ...       0.00
freq.    1689.96  E(vib)   ...       0.00
freq.    1702.31  E(vib)   ...       0.00
freq.    3082.80  E(vib)   ...       0.00
freq.    3096.98  E(vib)   ...       0.00
freq.    3101.85  E(vib)   ...       0.00
freq.    3107.52  E(vib)   ...       0.00
freq.    3141.27  E(vib)   ...       0.00
freq.    3166.71  E(vib)   ...       0.00
freq.    3187.13  E(vib)   ...       0.00
freq.    3198.26  E(vib)   ...       0.00
freq.    3200.22  E(vib)   ...       0.00
freq.    3205.39  E(vib)   ...       0.00
freq.    3207.29  E(vib)   ...       0.00
freq.    3217.47  E(vib)   ...       0.00
freq.    3224.70  E(vib)   ...       0.00
freq.    3226.26  E(vib)   ...       0.00
freq.    3233.08  E(vib)   ...       0.00
freq.    3233.19  E(vib)   ...       0.00
freq.    3241.36  E(vib)   ...       0.00
freq.    3294.72  E(vib)   ...       0.00
freq.    3510.42  E(vib)   ...       0.00

------------
INNER ENERGY
------------

The inner energy is: U= E(el) + E(ZPE) + E(vib) + E(rot) + E(trans)
    E(el)   - is the total energy from the electronic structure calculation
              = E(kin-el) + E(nuc-el) + E(el-el) + E(nuc-nuc)
    E(ZPE)  - the the zero temperature vibrational energy from the frequency calculation
    E(vib)  - the the finite temperature correction to E(ZPE) due to population
              of excited vibrational states
    E(rot)  - is the rotational thermal energy
    E(trans)- is the translational thermal energy

Summary of contributions to the inner energy U:
Electronic energy                ...  -1088.68193709 Eh
Zero point energy                ...      0.34029889 Eh     213.54 kcal/mol
Thermal vibrational correction   ...      0.01705964 Eh      10.71 kcal/mol
Thermal rotational correction    ...      0.00141627 Eh       0.89 kcal/mol
Thermal translational correction ...      0.00141627 Eh       0.89 kcal/mol
-----------------------------------------------------------------------
Total thermal energy                  -1088.32174601 Eh

Summary of corrections to the electronic energy:
(perhaps to be used in another calculation)
Total thermal correction                  0.01989219 Eh      12.48 kcal/mol

Rotational constants in cm-1:     0.021237     0.003834     0.003665

                             ****ORCA TERMINATED NORMALLY****
TOTAL RUN TIME: 0 days 4 hours 23 minutes 11 seconds 371 msec
