                         Program Version 5.0.3 -  RELEASE  -
|  1> ! wB97X-D3 TightOpt Freq def2-TZVPP def2/J RIJCOSX TightSCF defgrid3 CHELPG
|  2> %maxcore 3200
|  3>
|  4> %pal nprocs 8
|  5> end
|  6>
|  7> %chelpg
|  8> grid 0.1
|  9> rmax 3.0
| 10> end
| 11>
| 12>
| 13> *xyz 1 1
| 14>  C    -1.7346383413    3.1154268500    -0.8767198811
| 15>  N    -2.4818295330    1.8472522109    -0.9338881077
| 16>  C    -3.2535799980    1.5327447572    0.3021540797
| 17>  C    -2.3577068155    0.8307155489    1.3175559444
| 18>  C    -1.7838623148    -0.4847652346    0.7436453748
| 19>  C    -2.8967467311    -1.3876515962    0.2462928956
| 20>  C    -3.1294909244    -1.5982658428    -1.1061649943
| 21>  C    -4.1664975405    -2.4205976592    -1.5151108074
| 22>  C    -4.9828909763    -3.0298910061    -0.5789451501
| 23>  C    -4.7519150167    -2.8260313423    0.7718871160
| 24>  C    -3.7129559258    -2.0115609918    1.1833181993
| 25>  O    -0.8938413100    -0.1881590836    -0.3380294748
| 26>  C    0.4551624172    -0.0034702481    -0.1123397048
| 27>  C    1.2338027351    0.0773932800    -1.2657753816
| 28>  C    2.5927030253    0.2902607341    -1.1730530611
| 29>  C    3.1808413946    0.4245620718    0.0787510543
| 30>  C    2.4094892018    0.3465479198    1.2272045122
| 31>  C    1.0437949656    0.1359223304    1.1364596229
| 32>  C    4.6553900633    0.7100190883    0.1857375751
| 33>  F    5.3532965636    0.1887509269    -0.8278197955
| 34>  F    4.8888625939    2.0377543931    0.1706413783
| 35>  F    5.1875380968    0.2424371547    1.3192635769
| 36>  H    -1.0412357068    3.1024556513    -0.0389935763
| 37>  H    -2.4190513968    3.9533684721    -0.7549939749
| 38>  H    -1.1656689777    3.2562699413    -1.7932026975
| 39>  H    -1.7985045380    1.0441860394    -1.0272909238
| 40>  H    -4.0767156856    0.8664519715    0.0358514751
| 41>  H    -3.6666577288    2.4540265328    0.7166077596
| 42>  H    -2.9509063087    0.6015331898    2.2014890515
| 43>  H    -1.5395203840    1.4843839170    1.6246778410
| 44>  H    -1.2407413012    -1.0180762154    1.5304159583
| 45>  H    -2.4803735673    -1.1533846175    -1.8460104957
| 46>  H    -4.3306216041    -2.5873680132    -2.5684006044
| 47>  H    -5.7887109267    -3.6707937799    -0.8994488809
| 48>  H    -5.3756591981    -3.3091995177    1.5071585773
| 49>  H    -3.5266487305    -1.8696657784    2.2375424940
| 50>  H    0.7628938593    -0.0464737514    -2.2282022470
| 51>  H    3.1975033889    0.3431228438    -2.0643446145
| 52>  H    2.8721003208    0.4481961433    2.1963191965
| 53>  H    0.4702690455    0.0797825348    2.0476213456
| 54>  H    -3.1058327639    1.8586180429    -1.7445225998
| 55> *
| 56>
| 57>
| 58>                          ****END OF INPUT****
 Total Charge           Charge          ....    1
 Multiplicity           Mult            ....    1
 Number of Electrons    NEL             ....  162
Dispersion correction           -0.020519802
FINAL SINGLE POINT ENERGY     -1088.678482823918
Dispersion correction            ... done
Dispersion correction           -0.020184928
FINAL SINGLE POINT ENERGY     -1088.679999447498
Dispersion correction            ... done
Dispersion correction           -0.020705209
FINAL SINGLE POINT ENERGY     -1088.681070664383
Dispersion correction            ... done
FINAL SINGLE POINT ENERGY     -1088.681446583062
FINAL SINGLE POINT ENERGY     -1088.681624479376
FINAL SINGLE POINT ENERGY     -1088.681740047603
FINAL SINGLE POINT ENERGY     -1088.681788409116
FINAL SINGLE POINT ENERGY     -1088.681808024896
FINAL SINGLE POINT ENERGY     -1088.681813900540
FINAL SINGLE POINT ENERGY     -1088.681817404812
FINAL SINGLE POINT ENERGY     -1088.681820251235
FINAL SINGLE POINT ENERGY     -1088.681821367354
FINAL SINGLE POINT ENERGY     -1088.681820623997
FINAL SINGLE POINT ENERGY     -1088.681796074687
FINAL SINGLE POINT ENERGY     -1088.681823108325
FINAL SINGLE POINT ENERGY     -1088.681829196018
FINAL SINGLE POINT ENERGY     -1088.681839075346
Dispersion correction           -0.021128061
FINAL SINGLE POINT ENERGY     -1088.681841227329
Dispersion correction            ... done
Dispersion correction           -0.021124706
FINAL SINGLE POINT ENERGY     -1088.681842078973
Dispersion correction            ... done
                    ***********************HURRAY********************

CARTESIAN COORDINATES (ANGSTROEM)
---------------------------------
  C     -1.307520    2.907274   -0.799633
  N     -2.307001    1.812480   -0.930063
  C     -3.072624    1.496990    0.328010
  C     -2.238438    0.686109    1.305256
  C     -1.788535   -0.673569    0.743858
  C     -2.958995   -1.498301    0.249893
  C     -3.126008   -1.826687   -1.089305
  C     -4.240184   -2.548769   -1.499017
  C     -5.190947   -2.950172   -0.576777
  C     -5.020820   -2.637373    0.765072
  C     -3.912569   -1.916659    1.174843
  O     -0.895707   -0.462261   -0.352574
  C      0.415955   -0.118395   -0.133574
  C      1.154031    0.135940   -1.285903
  C      2.475619    0.516657   -1.185117
  C      3.071072    0.643396    0.064824
  C      2.337957    0.375247    1.204730
  C      1.004884   -0.006909    1.116103
  C      4.501440    1.110975    0.155978
  F      5.263988    0.534866   -0.779134
  F      4.581477    2.438766   -0.032260
  F      5.040807    0.844111    1.347795
  H     -0.567084    2.622134   -0.057645
  H     -1.817601    3.817834   -0.496453
  H     -0.816532    3.052132   -1.758153
  H     -1.815086    0.945851   -1.193345
  H     -3.953392    0.934596    0.020120
  H     -3.392232    2.444702    0.758017
  H     -2.857266    0.518441    2.186757
  H     -1.372001    1.255229    1.645884
  H     -1.271057   -1.233239    1.525015
  H     -2.371803   -1.555042   -1.815428
  H     -4.354275   -2.807923   -2.543565
  H     -6.055006   -3.516994   -0.896972
  H     -5.749063   -2.963779    1.495774
  H     -3.784942   -1.695471    2.228812
  H      0.688184    0.003104   -2.254350
  H      3.052228    0.704575   -2.081199
  H      2.801965    0.458397    2.177871
  H      0.462136   -0.219234    2.025454
  H     -2.964213    2.037799   -1.672260

 Multiplicity           Mult            ....    1
 Number of Electrons    NEL             ....  162
 Basis Dimension        Dim             ....  948

ORBITAL ENERGIES
----------------

  NO   OCC          E(Eh)            E(eV)
   0   2.0000     -24.900516      -677.5775
   1   2.0000     -24.897947      -677.5076
   2   2.0000     -24.895756      -677.4479
   3   2.0000     -19.415229      -528.3152
   4   2.0000     -14.705618      -400.1602
   5   2.0000     -10.615780      -288.8701
   6   2.0000     -10.496050      -285.6120
   7   2.0000     -10.490813      -285.4695
   8   2.0000     -10.490326      -285.4563
   9   2.0000     -10.480415      -285.1866
  10   2.0000     -10.442614      -284.1580
  11   2.0000     -10.415455      -283.4189
  12   2.0000     -10.412508      -283.3388
  13   2.0000     -10.412238      -283.3314
  14   2.0000     -10.411504      -283.3114
  15   2.0000     -10.411073      -283.2997
  16   2.0000     -10.408579      -283.2318
  17   2.0000     -10.398915      -282.9689
  18   2.0000     -10.398720      -282.9636
  19   2.0000     -10.393174      -282.8126
  20   2.0000     -10.393133      -282.8115
  21   2.0000     -10.389212      -282.7048
  22   2.0000      -1.518506       -41.3207
  23   2.0000      -1.428231       -38.8641
  24   2.0000      -1.423540       -38.7365
  25   2.0000      -1.338794       -36.4304
  26   2.0000      -1.289957       -35.1015
  27   2.0000      -1.120425       -30.4883
  28   2.0000      -1.103752       -30.0346
  29   2.0000      -1.074933       -29.2504
  30   2.0000      -1.027651       -27.9638
  31   2.0000      -1.007487       -27.4151
  32   2.0000      -1.000301       -27.2196
  33   2.0000      -0.991361       -26.9763
  34   2.0000      -0.981134       -26.6980
  35   2.0000      -0.949602       -25.8400
  36   2.0000      -0.915243       -24.9050
  37   2.0000      -0.891161       -24.2497
  38   2.0000      -0.867225       -23.5984
  39   2.0000      -0.861530       -23.4434
  40   2.0000      -0.841955       -22.9107
  41   2.0000      -0.829072       -22.5602
  42   2.0000      -0.812863       -22.1191
  43   2.0000      -0.800777       -21.7902
  44   2.0000      -0.789209       -21.4755
  45   2.0000      -0.782947       -21.3051
  46   2.0000      -0.782903       -21.3039
  47   2.0000      -0.765419       -20.8281
  48   2.0000      -0.760121       -20.6840
  49   2.0000      -0.745552       -20.2875
  50   2.0000      -0.723428       -19.6855
  51   2.0000      -0.707653       -19.2562
  52   2.0000      -0.692370       -18.8403
  53   2.0000      -0.682832       -18.5808
  54   2.0000      -0.679423       -18.4880
  55   2.0000      -0.678067       -18.4511
  56   2.0000      -0.673599       -18.3295
  57   2.0000      -0.665972       -18.1220
  58   2.0000      -0.658760       -17.9258
  59   2.0000      -0.656956       -17.8767
  60   2.0000      -0.655305       -17.8318
  61   2.0000      -0.650547       -17.7023
  62   2.0000      -0.644563       -17.5395
  63   2.0000      -0.637161       -17.3380
  64   2.0000      -0.634886       -17.2761
  65   2.0000      -0.625614       -17.0238
  66   2.0000      -0.617539       -16.8041
  67   2.0000      -0.613031       -16.6814
  68   2.0000      -0.611702       -16.6453
  69   2.0000      -0.596180       -16.2229
  70   2.0000      -0.594619       -16.1804
  71   2.0000      -0.586126       -15.9493
  72   2.0000      -0.564334       -15.3563
  73   2.0000      -0.562944       -15.3185
  74   2.0000      -0.559270       -15.2185
  75   2.0000      -0.551043       -14.9946
  76   2.0000      -0.546768       -14.8783
  77   2.0000      -0.474728       -12.9180
  78   2.0000      -0.459708       -12.5093
  79   2.0000      -0.454356       -12.3637
  80   2.0000      -0.448648       -12.2083
  81   0.0000      -0.072004        -1.9593
  82   0.0000      -0.065460        -1.7813
  83   0.0000      -0.061298        -1.6680
  84   0.0000      -0.055131        -1.5002
  85   0.0000      -0.050851        -1.3837

MULLIKEN ATOMIC CHARGES
-----------------------
   0 C :   -0.186763
   1 N :    0.092345
   2 C :   -0.154127
   3 C :   -0.223806
   4 C :    0.218331
   5 C :    0.004303
   6 C :   -0.196051
   7 C :   -0.134431
   8 C :   -0.094347
   9 C :   -0.135503
  10 C :   -0.204233
  11 O :   -0.343246
  12 C :    0.242854
  13 C :   -0.259948
  14 C :   -0.081665
  15 C :   -0.076259
  16 C :   -0.146006
  17 C :   -0.165401
  18 C :    0.549327
  19 F :   -0.161857
  20 F :   -0.165629
  21 F :   -0.162534
  22 H :    0.145684
  23 H :    0.140244
  24 H :    0.147343
  25 H :    0.189232
  26 H :    0.163813
  27 H :    0.155835
  28 H :    0.123736
  29 H :    0.124782
  30 H :    0.143353
  31 H :    0.142341
  32 H :    0.145275
  33 H :    0.149562
  34 H :    0.147583
  35 H :    0.126225
  36 H :    0.137631
  37 H :    0.146413
  38 H :    0.151264
  39 H :    0.129601
  40 H :    0.174730
Sum of atomic charges:    1.0000000

LOEWDIN ATOMIC CHARGES
----------------------
   0 C :    0.076477
   1 N :    0.530285
   2 C :    0.026091
   3 C :   -0.007581
   4 C :   -0.133623
   5 C :   -0.086013
   6 C :   -0.019748
   7 C :    0.001455
   8 C :    0.007257
   9 C :    0.007075
  10 C :   -0.004456
  11 O :    0.312786
  12 C :   -0.210398
  13 C :   -0.014871
  14 C :    0.032003
  15 C :   -0.091174
  16 C :    0.032250
  17 C :   -0.021513
  18 C :   -0.640828
  19 F :    0.213855
  20 F :    0.198545
  21 F :    0.217474
  22 H :    0.028277
  23 H :    0.027271
  24 H :    0.028612
  25 H :    0.006084
  26 H :    0.037683
  27 H :    0.034082
  28 H :    0.046798
  29 H :    0.026994
  30 H :    0.038752
  31 H :    0.015217
  32 H :    0.028717
  33 H :    0.030119
  34 H :    0.030595
  35 H :    0.026533
  36 H :    0.026445
  37 H :    0.039854
  38 H :    0.037394
  39 H :    0.021639
  40 H :    0.043584

  Mayer bond orders larger than 0.100000
B(  0-C ,  1-N ) :   0.8943 B(  0-C , 22-H ) :   0.9673 B(  0-C , 23-H ) :   0.9776
B(  0-C , 24-H ) :   0.9716 B(  1-N ,  2-C ) :   0.8520 B(  1-N , 25-H ) :   0.9145
B(  1-N , 40-H ) :   0.9560 B(  2-C ,  3-C ) :   0.9083 B(  2-C , 26-H ) :   0.9908
B(  2-C , 27-H ) :   1.0034 B(  3-C ,  4-C ) :   0.8828 B(  3-C , 28-H ) :   0.9979
B(  3-C , 29-H ) :   1.0116 B(  4-C ,  5-C ) :   0.9374 B(  4-C , 11-O ) :   0.8257
B(  4-C , 30-H ) :   0.9951 B(  5-C ,  6-C ) :   1.3006 B(  5-C , 10-C ) :   1.3712
B(  6-C ,  7-C ) :   1.4619 B(  6-C , 31-H ) :   0.9685 B(  7-C ,  8-C ) :   1.4501
B(  7-C , 32-H ) :   0.9692 B(  8-C ,  9-C ) :   1.4173 B(  8-C , 33-H ) :   0.9669
B(  9-C , 10-C ) :   1.4913 B(  9-C , 34-H ) :   0.9678 B( 10-C , 35-H ) :   0.9795
B( 11-O , 12-C ) :   0.9993 B( 12-C , 13-C ) :   1.3358 B( 12-C , 17-C ) :   1.3465
B( 13-C , 14-C ) :   1.4991 B( 13-C , 36-H ) :   0.9840 B( 14-C , 15-C ) :   1.3987
B( 14-C , 37-H ) :   0.9502 B( 15-C , 16-C ) :   1.4380 B( 15-C , 18-C ) :   0.9925
B( 16-C , 17-C ) :   1.4618 B( 16-C , 38-H ) :   0.9367 B( 17-C , 39-H ) :   0.9796
B( 18-C , 19-F ) :   1.1376 B( 18-C , 20-F ) :   1.1313 B( 18-C , 21-F ) :   1.1369

Dispersion correction           -0.021122458
FINAL SINGLE POINT ENERGY     -1088.681842112164

DIPOLE MOMENT
-------------
                                X             Y             Z
Electronic contribution:     42.19920       1.91504       0.46082
Nuclear contribution   :    -46.98328       0.01846      -1.03770
                        -----------------------------------------
Total Dipole Moment    :     -4.78408       1.93350      -0.57689
                        -----------------------------------------
Magnitude (a.u.)       :      5.19217
Magnitude (Debye)      :     13.19745

Dispersion correction in the Hessian             ... done   (      1.1 sec)

VIBRATIONAL FREQUENCIES
-----------------------

Scaling factor for frequencies =  1.000000000  (already applied!)

   0:         0.00 cm**-1
   1:         0.00 cm**-1
   2:         0.00 cm**-1
   3:         0.00 cm**-1
   4:         0.00 cm**-1
   5:         0.00 cm**-1
   6:         6.62 cm**-1
   7:        22.52 cm**-1
   8:        36.98 cm**-1
   9:        39.18 cm**-1
  10:        51.89 cm**-1
  11:        76.96 cm**-1
  12:        88.68 cm**-1
  13:       102.94 cm**-1
  14:       129.38 cm**-1
  15:       162.27 cm**-1
  16:       177.59 cm**-1
  17:       190.78 cm**-1
  18:       215.19 cm**-1
  19:       236.16 cm**-1
  20:       268.01 cm**-1
  21:       282.64 cm**-1
  22:       344.06 cm**-1
  23:       354.36 cm**-1
  24:       375.36 cm**-1
  25:       403.40 cm**-1
  26:       416.94 cm**-1
  27:       418.12 cm**-1
  28:       425.36 cm**-1
  29:       432.35 cm**-1
  30:       486.34 cm**-1
  31:       506.77 cm**-1
  32:       524.92 cm**-1
  33:       570.78 cm**-1
  34:       585.93 cm**-1
  35:       610.69 cm**-1
  36:       631.38 cm**-1
  37:       637.96 cm**-1
  38:       654.92 cm**-1
  39:       684.60 cm**-1
  40:       733.60 cm**-1
  41:       766.43 cm**-1
  42:       772.28 cm**-1
  43:       778.68 cm**-1
  44:       803.99 cm**-1
  45:       824.83 cm**-1
  46:       841.19 cm**-1
  47:       852.98 cm**-1
  48:       875.45 cm**-1
  49:       881.83 cm**-1
  50:       886.59 cm**-1
  51:       910.71 cm**-1
  52:       961.93 cm**-1
  53:       970.35 cm**-1
  54:      1001.87 cm**-1
  55:      1009.28 cm**-1
  56:      1020.57 cm**-1
  57:      1026.90 cm**-1
  58:      1030.64 cm**-1
  59:      1038.21 cm**-1
  60:      1052.76 cm**-1
  61:      1053.75 cm**-1
  62:      1068.09 cm**-1
  63:      1080.06 cm**-1
  64:      1086.06 cm**-1
  65:      1109.01 cm**-1
  66:      1129.01 cm**-1
  67:      1146.53 cm**-1
  68:      1170.20 cm**-1
  69:      1177.42 cm**-1
  70:      1184.27 cm**-1
  71:      1191.62 cm**-1
  72:      1210.01 cm**-1
  73:      1218.45 cm**-1
  74:      1220.40 cm**-1
  75:      1237.62 cm**-1
  76:      1271.33 cm**-1
  77:      1282.79 cm**-1
  78:      1309.59 cm**-1
  79:      1326.90 cm**-1
  80:      1343.06 cm**-1
  81:      1347.58 cm**-1
  82:      1352.54 cm**-1
  83:      1360.54 cm**-1
  84:      1367.17 cm**-1
  85:      1387.81 cm**-1
  86:      1391.92 cm**-1
  87:      1411.47 cm**-1
  88:      1453.24 cm**-1
  89:      1468.45 cm**-1
  90:      1472.91 cm**-1
  91:      1484.07 cm**-1
  92:      1489.51 cm**-1
  93:      1502.48 cm**-1
  94:      1504.31 cm**-1
  95:      1510.12 cm**-1
  96:      1513.41 cm**-1
  97:      1553.93 cm**-1
  98:      1572.26 cm**-1
  99:      1637.05 cm**-1
 100:      1669.22 cm**-1
 101:      1674.77 cm**-1
 102:      1690.18 cm**-1
 103:      1703.56 cm**-1
 104:      3092.65 cm**-1
 105:      3099.43 cm**-1
 106:      3102.03 cm**-1
 107:      3107.16 cm**-1
 108:      3143.86 cm**-1
 109:      3166.32 cm**-1
 110:      3186.64 cm**-1
 111:      3200.54 cm**-1
 112:      3205.50 cm**-1
 113:      3207.71 cm**-1
 114:      3208.25 cm**-1
 115:      3217.96 cm**-1
 116:      3225.92 cm**-1
 117:      3228.81 cm**-1
 118:      3229.33 cm**-1
 119:      3233.61 cm**-1
 120:      3242.97 cm**-1
 121:      3302.70 cm**-1
 122:      3535.91 cm**-1

IR SPECTRUM
-----------

 Mode   freq       eps      Int      T**2         TX        TY        TZ
       cm**-1   L/(mol*cm) km/mol    a.u.
----------------------------------------------------------------------------
  6:      6.62   0.000165    0.84  0.007801  ( 0.033977 -0.025637 -0.077391)
  7:     22.52   0.000730    3.69  0.010112  ( 0.091753 -0.039787  0.010523)
  8:     36.98   0.000705    3.56  0.005949  (-0.062705 -0.044324  0.007213)
  9:     39.18   0.000833    4.21  0.006632  ( 0.064436  0.044050  0.023220)
 10:     51.89   0.000296    1.49  0.001778  (-0.030050 -0.024102  0.017158)
 11:     76.96   0.000127    0.64  0.000515  ( 0.014705 -0.016613  0.004721)
 12:     88.68   0.000041    0.21  0.000145  ( 0.011639 -0.000905 -0.002922)
 13:    102.94   0.000126    0.64  0.000382  (-0.002628  0.017961 -0.007221)
 14:    129.38   0.000702    3.55  0.001693  ( 0.039664  0.001562  0.010853)
 15:    162.27   0.000261    1.32  0.000501  (-0.018166  0.006255  0.011484)
 16:    177.59   0.001212    6.12  0.002129  ( 0.014274 -0.041995  0.012726)
 17:    190.78   0.000691    3.49  0.001130  (-0.026041  0.016134 -0.013827)
 18:    215.19   0.000242    1.23  0.000352  (-0.014465 -0.009988  0.006523)
 19:    236.16   0.002602   13.15  0.003438  (-0.032222  0.048300 -0.008167)
 20:    268.01   0.004206   21.26  0.004897  (-0.037704  0.057079 -0.014758)
 21:    282.64   0.000948    4.79  0.001047  (-0.021718  0.022177 -0.009125)
 22:    344.06   0.000605    3.06  0.000548  ( 0.001081  0.021093  0.010111)
 23:    354.36   0.001246    6.30  0.001098  (-0.023373  0.020323 -0.011757)
 24:    375.36   0.000525    2.65  0.000437  ( 0.012209  0.016446 -0.004135)
 25:    403.40   0.000398    2.01  0.000308  (-0.008361 -0.002824 -0.015176)
 26:    416.94   0.000079    0.40  0.000059  ( 0.005485 -0.004631  0.002703)
 27:    418.12   0.000025    0.12  0.000018  ( 0.002291  0.002297 -0.002789)
 28:    425.36   0.000323    1.63  0.000237  (-0.009296  0.004005 -0.011601)
 29:    432.35   0.000007    0.03  0.000005  (-0.000955  0.000890 -0.001776)
 30:    486.34   0.001100    5.56  0.000706  ( 0.025988 -0.002413  0.004935)
 31:    506.77   0.001177    5.95  0.000725  ( 0.019099 -0.018715  0.003128)
 32:    524.92   0.000859    4.34  0.000511  ( 0.012946 -0.018528  0.000200)
 33:    570.78   0.001031    5.21  0.000564  ( 0.019352 -0.013368  0.003227)
 34:    585.93   0.000047    0.24  0.000025  ( 0.004926 -0.000770  0.000521)
 35:    610.69   0.002588   13.08  0.001322  (-0.016441  0.032418  0.001094)
 36:    631.38   0.002185   11.04  0.001080  ( 0.023263  0.022807  0.004289)
 37:    637.96   0.000147    0.74  0.000072  ( 0.001143  0.005473  0.006390)
 38:    654.92   0.001056    5.34  0.000503  ( 0.020793  0.008390 -0.000605)
 39:    684.60   0.004441   22.44  0.002024  ( 0.044098  0.008077  0.003783)
 40:    733.60   0.007120   35.98  0.003029  ( 0.031064 -0.044875  0.007059)
 41:    766.43   0.000892    4.51  0.000363  (-0.011987  0.014804 -0.000645)
 42:    772.28   0.000150    0.76  0.000061  (-0.005204  0.001037 -0.005710)
 43:    778.68   0.010618   53.66  0.004255  (-0.028145  0.057715 -0.011496)
 44:    803.99   0.000596    3.01  0.000231  ( 0.011688  0.005848  0.007787)
 45:    824.83   0.002933   14.82  0.001110  (-0.007450  0.032448  0.001128)
 46:    841.19   0.006706   33.89  0.002488  (-0.034693  0.035271 -0.006331)
 47:    852.98   0.000381    1.93  0.000140  (-0.008596 -0.007612 -0.002773)
 48:    875.45   0.010027   50.67  0.003574  ( 0.005295 -0.059534  0.001349)
 49:    881.83   0.002858   14.44  0.001011  (-0.018737  0.025311  0.004447)
 50:    886.59   0.000146    0.74  0.000051  (-0.005207 -0.003689  0.003250)
 51:    910.71   0.003149   15.91  0.001079  (-0.030880 -0.001511 -0.011096)
 52:    961.93   0.000560    2.83  0.000182  (-0.001350 -0.012414 -0.005059)
 53:    970.35   0.000730    3.69  0.000235  (-0.000889  0.009794 -0.011749)
 54:   1001.87   0.000840    4.25  0.000262  ( 0.002438  0.015963  0.000993)
 55:   1009.28   0.000879    4.44  0.000272  (-0.016355 -0.000975 -0.001824)
 56:   1020.57   0.000106    0.54  0.000032  (-0.004936  0.002429  0.001484)
 57:   1026.90   0.000224    1.13  0.000068  ( 0.005089  0.006236 -0.001776)
 58:   1030.64   0.000729    3.68  0.000221  (-0.012526 -0.007921 -0.001008)
 59:   1038.21   0.004447   22.47  0.001337  (-0.035318 -0.009361 -0.001315)
 60:   1052.76   0.003548   17.93  0.001052  (-0.024481 -0.012151  0.017460)
 61:   1053.75   0.004146   20.95  0.001228  (-0.028262 -0.011542  0.017197)
 62:   1068.09   0.005827   29.45  0.001702  ( 0.035785  0.018541 -0.008833)
 63:   1080.06   0.002284   11.54  0.000660  (-0.013548 -0.016053  0.014790)
 64:   1086.06   0.014592   73.74  0.004193  (-0.062306 -0.010336  0.014283)
 65:   1109.01   0.017565   88.77  0.004943  ( 0.063474  0.028238  0.010790)
 66:   1129.01   0.000493    2.49  0.000136  ( 0.002774 -0.000386  0.011337)
 67:   1146.53   0.007220   36.49  0.001965  (-0.005667  0.002633 -0.043887)
 68:   1170.20   0.000939    4.75  0.000251  (-0.009798 -0.002133  0.012245)
 69:   1177.42   0.005702   28.82  0.001511  ( 0.037873  0.004642 -0.007444)
 70:   1184.27   0.049642  250.87  0.013081  (-0.025341  0.111504 -0.002354)
 71:   1191.62   0.000332    1.68  0.000087  ( 0.008443  0.002047 -0.003369)
 72:   1210.01   0.015038   76.00  0.003878  (-0.054774 -0.000257  0.029632)
 73:   1218.45   0.012067   60.98  0.003090  (-0.022100 -0.008518  0.050294)
 74:   1220.40   0.019841  100.27  0.005074  (-0.003667  0.003154  0.071065)
 75:   1237.62   0.006570   33.20  0.001657  (-0.039862 -0.007937 -0.002175)
 76:   1271.33   0.021098  106.62  0.005179  ( 0.070795  0.007780  0.010304)
 77:   1282.79   0.044837  226.59  0.010907  (-0.100740 -0.027374  0.003095)
 78:   1309.59   0.002720   13.74  0.000648  (-0.015168  0.018458  0.008791)
 79:   1326.90   0.003239   16.37  0.000762  (-0.016562 -0.013043 -0.017812)
 80:   1343.06   0.001578    7.98  0.000367  (-0.001477 -0.001684  0.019018)
 81:   1347.58   0.017780   89.85  0.004117  (-0.061189 -0.016056 -0.010752)
 82:   1352.54   0.015278   77.21  0.003525  (-0.058632 -0.006732 -0.006475)
 83:   1360.54   0.046945  237.24  0.010768  (-0.100598 -0.025395  0.001665)
 84:   1367.17   0.001727    8.73  0.000394  ( 0.016459  0.008246  0.007433)
 85:   1387.81   0.000759    3.83  0.000171  ( 0.010292 -0.001951 -0.007803)
 86:   1391.92   0.004822   24.37  0.001081  (-0.031113 -0.010606  0.000758)
 87:   1411.47   0.005133   25.94  0.001135  (-0.031478 -0.010237 -0.006264)
 88:   1453.24   0.000986    4.98  0.000212  (-0.014480 -0.001301  0.000615)
 89:   1468.45   0.002651   13.40  0.000563  ( 0.002354  0.021746 -0.009216)
 90:   1472.91   0.002176   11.00  0.000461  (-0.002744  0.001364 -0.021252)
 91:   1484.07   0.005074   25.64  0.001067  (-0.005995 -0.029001 -0.013779)
 92:   1489.51   0.004296   21.71  0.000900  (-0.005283 -0.024207  0.016914)
 93:   1502.48   0.004442   22.45  0.000923  ( 0.007814 -0.000299 -0.029349)
 94:   1504.31   0.001387    7.01  0.000288  (-0.008850  0.003161  0.014121)
 95:   1510.12   0.006245   31.56  0.001290  ( 0.008502  0.024813 -0.024546)
 96:   1513.41   0.005650   28.55  0.001165  (-0.032199  0.011250 -0.001275)
 97:   1553.93   0.002163   10.93  0.000434  ( 0.015890  0.011917  0.006311)
 98:   1572.26   0.020479  103.49  0.004065  ( 0.062300  0.013543  0.000162)
 99:   1637.05   0.011442   57.82  0.002181  (-0.032338 -0.004483 -0.033395)
100:   1669.22   0.001915    9.68  0.000358  ( 0.008034  0.000614  0.017120)
101:   1674.77   0.002904   14.68  0.000541  ( 0.015877  0.002847  0.016762)
102:   1690.18   0.000623    3.15  0.000115  ( 0.007842  0.007181 -0.001371)
103:   1703.56   0.019545   98.77  0.003580  ( 0.058141  0.011217 -0.008612)
104:   3092.65   0.001067    5.39  0.000108  (-0.004069 -0.009349  0.001928)
105:   3099.43   0.000771    3.90  0.000078  ( 0.005504 -0.004148  0.005492)
106:   3102.03   0.000675    3.41  0.000068  ( 0.003840  0.004931  0.005371)
107:   3107.16   0.001332    6.73  0.000134  ( 0.007001 -0.009207  0.000055)
108:   3143.86   0.001136    5.74  0.000113  (-0.009241 -0.005118 -0.001071)
109:   3166.32   0.000533    2.70  0.000053  (-0.000319 -0.007181 -0.000951)
110:   3186.64   0.000966    4.88  0.000095  (-0.004454 -0.004425 -0.007425)
111:   3200.54   0.000442    2.24  0.000043  (-0.004762  0.004475 -0.000653)
112:   3205.50   0.000118    0.60  0.000012  ( 0.002136 -0.001513  0.002163)
113:   3207.71   0.000687    3.47  0.000067  ( 0.007799 -0.000849  0.002303)
114:   3208.25   0.000124    0.63  0.000012  (-0.002723 -0.002133 -0.000327)
115:   3217.96   0.000343    1.74  0.000033  ( 0.002227  0.003010  0.004392)
116:   3225.92   0.001134    5.73  0.000110  ( 0.005350  0.003277 -0.008384)
117:   3228.81   0.000041    0.21  0.000004  ( 0.001750 -0.000802  0.000507)
118:   3229.33   0.000419    2.12  0.000040  ( 0.005789  0.001388 -0.002244)
119:   3233.61   0.000424    2.14  0.000041  ( 0.004411  0.002959  0.003568)
120:   3242.97   0.000928    4.69  0.000089  ( 0.009115  0.002333  0.000904)
121:   3302.70   0.056086  283.44  0.005299  ( 0.041670 -0.059615  0.003013)
122:   3535.91   0.016682   84.31  0.001472  ( 0.025232 -0.016294  0.023878)

--------------------------
THERMOCHEMISTRY AT 298.15K
--------------------------

Temperature         ... 298.15 K
Pressure            ... 1.00 atm
Total Mass          ... 310.34 AMU

Throughout the following assumptions are being made:
  (1) The electronic state is orbitally nondegenerate
  (2) There are no thermally accessible electronically excited states
  (3) Hindered rotations indicated by low frequency modes are not
      treated as such but are treated as vibrations and this may
      cause some error
  (4) All equations used are the standard statistical mechanics
      equations for an ideal gas
  (5) All vibrations are strictly harmonic

freq.       6.62  E(vib)   ...       0.58
freq.      22.52  E(vib)   ...       0.56
freq.      36.98  E(vib)   ...       0.54
freq.      39.18  E(vib)   ...       0.54
freq.      51.89  E(vib)   ...       0.52
freq.      76.96  E(vib)   ...       0.49
freq.      88.68  E(vib)   ...       0.47
freq.     102.94  E(vib)   ...       0.46
freq.     129.38  E(vib)   ...       0.43
freq.     162.27  E(vib)   ...       0.39
freq.     177.59  E(vib)   ...       0.37
freq.     190.78  E(vib)   ...       0.36
freq.     215.19  E(vib)   ...       0.34
freq.     236.16  E(vib)   ...       0.32
freq.     268.01  E(vib)   ...       0.29
freq.     282.64  E(vib)   ...       0.28
freq.     344.06  E(vib)   ...       0.23
freq.     354.36  E(vib)   ...       0.22
freq.     375.36  E(vib)   ...       0.21
freq.     403.40  E(vib)   ...       0.19
freq.     416.94  E(vib)   ...       0.18
freq.     418.12  E(vib)   ...       0.18
freq.     425.36  E(vib)   ...       0.18
freq.     432.35  E(vib)   ...       0.18
freq.     486.34  E(vib)   ...       0.15
freq.     506.77  E(vib)   ...       0.14
freq.     524.92  E(vib)   ...       0.13
freq.     570.78  E(vib)   ...       0.11
freq.     585.93  E(vib)   ...       0.11
freq.     610.69  E(vib)   ...       0.10
freq.     631.38  E(vib)   ...       0.09
freq.     637.96  E(vib)   ...       0.09
freq.     654.92  E(vib)   ...       0.08
freq.     684.60  E(vib)   ...       0.07
freq.     733.60  E(vib)   ...       0.06
freq.     766.43  E(vib)   ...       0.06
freq.     772.28  E(vib)   ...       0.05
freq.     778.68  E(vib)   ...       0.05
freq.     803.99  E(vib)   ...       0.05
freq.     824.83  E(vib)   ...       0.04
freq.     841.19  E(vib)   ...       0.04
freq.     852.98  E(vib)   ...       0.04
freq.     875.45  E(vib)   ...       0.04
freq.     881.83  E(vib)   ...       0.04
freq.     886.59  E(vib)   ...       0.04
freq.     910.71  E(vib)   ...       0.03
freq.     961.93  E(vib)   ...       0.03
freq.     970.35  E(vib)   ...       0.03
freq.    1001.87  E(vib)   ...       0.02
freq.    1009.28  E(vib)   ...       0.02
freq.    1020.57  E(vib)   ...       0.02
freq.    1026.90  E(vib)   ...       0.02
freq.    1030.64  E(vib)   ...       0.02
freq.    1038.21  E(vib)   ...       0.02
freq.    1052.76  E(vib)   ...       0.02
freq.    1053.75  E(vib)   ...       0.02
freq.    1068.09  E(vib)   ...       0.02
freq.    1080.06  E(vib)   ...       0.02
freq.    1086.06  E(vib)   ...       0.02
freq.    1109.01  E(vib)   ...       0.02
freq.    1129.01  E(vib)   ...       0.01
freq.    1146.53  E(vib)   ...       0.01
freq.    1170.20  E(vib)   ...       0.01
freq.    1177.42  E(vib)   ...       0.01
freq.    1184.27  E(vib)   ...       0.01
freq.    1191.62  E(vib)   ...       0.01
freq.    1210.01  E(vib)   ...       0.01
freq.    1218.45  E(vib)   ...       0.01
freq.    1220.40  E(vib)   ...       0.01
freq.    1237.62  E(vib)   ...       0.01
freq.    1271.33  E(vib)   ...       0.01
freq.    1282.79  E(vib)   ...       0.01
freq.    1309.59  E(vib)   ...       0.01
freq.    1326.90  E(vib)   ...       0.01
freq.    1343.06  E(vib)   ...       0.01
freq.    1347.58  E(vib)   ...       0.01
freq.    1352.54  E(vib)   ...       0.01
freq.    1360.54  E(vib)   ...       0.01
freq.    1367.17  E(vib)   ...       0.01
freq.    1387.81  E(vib)   ...       0.00
freq.    1391.92  E(vib)   ...       0.00
freq.    1411.47  E(vib)   ...       0.00
freq.    1453.24  E(vib)   ...       0.00
freq.    1468.45  E(vib)   ...       0.00
freq.    1472.91  E(vib)   ...       0.00
freq.    1484.07  E(vib)   ...       0.00
freq.    1489.51  E(vib)   ...       0.00
freq.    1502.48  E(vib)   ...       0.00
freq.    1504.31  E(vib)   ...       0.00
freq.    1510.12  E(vib)   ...       0.00
freq.    1513.41  E(vib)   ...       0.00
freq.    1553.93  E(vib)   ...       0.00
freq.    1572.26  E(vib)   ...       0.00
freq.    1637.05  E(vib)   ...       0.00
freq.    1669.22  E(vib)   ...       0.00
freq.    1674.77  E(vib)   ...       0.00
freq.    1690.18  E(vib)   ...       0.00
freq.    1703.56  E(vib)   ...       0.00
freq.    3092.65  E(vib)   ...       0.00
freq.    3099.43  E(vib)   ...       0.00
freq.    3102.03  E(vib)   ...       0.00
freq.    3107.16  E(vib)   ...       0.00
freq.    3143.86  E(vib)   ...       0.00
freq.    3166.32  E(vib)   ...       0.00
freq.    3186.64  E(vib)   ...       0.00
freq.    3200.54  E(vib)   ...       0.00
freq.    3205.50  E(vib)   ...       0.00
freq.    3207.71  E(vib)   ...       0.00
freq.    3208.25  E(vib)   ...       0.00
freq.    3217.96  E(vib)   ...       0.00
freq.    3225.92  E(vib)   ...       0.00
freq.    3228.81  E(vib)   ...       0.00
freq.    3229.33  E(vib)   ...       0.00
freq.    3233.61  E(vib)   ...       0.00
freq.    3242.97  E(vib)   ...       0.00
freq.    3302.70  E(vib)   ...       0.00
freq.    3535.91  E(vib)   ...       0.00

------------
INNER ENERGY
------------

The inner energy is: U= E(el) + E(ZPE) + E(vib) + E(rot) + E(trans)
    E(el)   - is the total energy from the electronic structure calculation
              = E(kin-el) + E(nuc-el) + E(el-el) + E(nuc-nuc)
    E(ZPE)  - the the zero temperature vibrational energy from the frequency calculation
    E(vib)  - the the finite temperature correction to E(ZPE) due to population
              of excited vibrational states
    E(rot)  - is the rotational thermal energy
    E(trans)- is the translational thermal energy

Summary of contributions to the inner energy U:
Electronic energy                ...  -1088.68184211 Eh
Zero point energy                ...      0.34050662 Eh     213.67 kcal/mol
Thermal vibrational correction   ...      0.01694535 Eh      10.63 kcal/mol
Thermal rotational correction    ...      0.00141627 Eh       0.89 kcal/mol
Thermal translational correction ...      0.00141627 Eh       0.89 kcal/mol
-----------------------------------------------------------------------
Total thermal energy                  -1088.32155760 Eh

Summary of corrections to the electronic energy:
(perhaps to be used in another calculation)
Total thermal correction                  0.01977789 Eh      12.41 kcal/mol

Rotational constants in cm-1:     0.021932     0.003924     0.003752

                             ****ORCA TERMINATED NORMALLY****
TOTAL RUN TIME: 0 days 5 hours 18 minutes 56 seconds 826 msec
