 Gaussian 16, Revision A.03,
 Gaussian 16:  ES64L-G16RevA.03 25-Dec-2016

 ----------------------------------------------------------------------
 # opt=maxcycles=150 freq b3lyp/6-31++g(d,p) empiricaldispersion=GD3 in
 t=ultrafine scf=xqc pop=(mk,dipole)
 ----------------------------------------------------------------------

 ---------------------------
 Original File: AMIFOSTINE_3
 ---------------------------
 Symbolic Z-matrix:
 Charge =  1 Multiplicity = 1

 SCF Done:  E(RB3LYP) =  -1274.81525619     A.U. after   13 cycles
 SCF Done:  E(RB3LYP) =  -1274.79444936     A.U. after   14 cycles
 SCF Done:  E(RB3LYP) =  -1274.82313063     A.U. after   12 cycles
 SCF Done:  E(RB3LYP) =  -1274.82967543     A.U. after   12 cycles
 SCF Done:  E(RB3LYP) =  -1274.82330523     A.U. after   12 cycles
 SCF Done:  E(RB3LYP) =  -1274.83218253     A.U. after   12 cycles
 SCF Done:  E(RB3LYP) =  -1274.83160126     A.U. after   12 cycles
 SCF Done:  E(RB3LYP) =  -1274.83447683     A.U. after   11 cycles
 SCF Done:  E(RB3LYP) =  -1274.83482879     A.U. after   11 cycles
 SCF Done:  E(RB3LYP) =  -1274.83467746     A.U. after   12 cycles
 SCF Done:  E(RB3LYP) =  -1274.83701809     A.U. after   10 cycles
 SCF Done:  E(RB3LYP) =  -1274.83702821     A.U. after    9 cycles
 SCF Done:  E(RB3LYP) =  -1274.83701955     A.U. after   10 cycles
 SCF Done:  E(RB3LYP) =  -1274.83704478     A.U. after   10 cycles
 SCF Done:  E(RB3LYP) =  -1274.83704719     A.U. after    9 cycles
 SCF Done:  E(RB3LYP) =  -1274.83704898     A.U. after    8 cycles
 SCF Done:  E(RB3LYP) =  -1274.83704928     A.U. after    8 cycles
 SCF Done:  E(RB3LYP) =  -1274.83704933     A.U. after    8 cycles
 SCF Done:  E(RB3LYP) =  -1274.83704935     A.U. after    7 cycles
 Optimization completed.
    -- Stationary point found.
 Normal termination of Gaussian 16 at Wed Jul 18 10:47:21 2018.

 ----------------------------------------------------------------------
 #N Geom=AllCheck Guess=TCheck SCRF=Check GenChk RB3LYP/6-31++G(d,p) Fr
 eq
 ----------------------------------------------------------------------

 Structure from the checkpoint file:  "/scratch/cieritan/chk/AMIFOSTINE_3.chk"
 ---------------------------
 Original File: AMIFOSTINE_3
 ---------------------------
 Charge =  1 Multiplicity = 1

                         Standard orientation:
 ---------------------------------------------------------------------
 Center     Atomic      Atomic             Coordinates (Angstroms)
 Number     Number       Type             X           Y           Z
 ---------------------------------------------------------------------
      1         16           0        1.290720    0.833267   -1.273616
      2         15           0        1.835911   -0.567878    0.215330
      3          8           0        1.601511    0.228372    1.605858
      4          8           0        3.441654   -0.700215    0.177428
      5          8           0        1.123771   -1.872819    0.078359
      6          7           0       -1.322987    0.767840    0.692000
      7          7           0       -1.458729   -1.483075   -0.811255
      8          6           0       -2.757666    0.544934    1.014839
      9          6           0       -3.480230   -0.274033   -0.071868
     10          6           0       -1.054154    1.971353   -0.110973
     11          6           0        0.439941    2.194050   -0.338432
     12          6           0       -2.860894   -1.659330   -0.288580
     13          1           0       -2.799037   -0.005872    1.960392
     14          1           0       -3.284059    1.496095    1.171852
     15          1           0       -3.500232    0.275782   -1.021991
     16          1           0       -4.525408   -0.406508    0.225097
     17          1           0       -1.458105    2.875531    0.371897
     18          1           0       -1.565254    1.866633   -1.074769
     19          1           0        0.974355    2.358160    0.598845
     20          1           0        0.589129    3.075024   -0.968161
     21          1           0       -3.432326   -2.270100   -0.990153
     22          1           0       -2.779168   -2.204417    0.655621
     23          1           0       -1.429401   -1.306496   -1.816519
     24          1           0       -0.795367   -2.237010   -0.595978
     25          1           0        2.343161    0.155298    2.228584
     26          1           0        3.745852   -1.567881   -0.134975
     27          1           0       -0.776102    0.804022    1.549819
     28          1           0       -1.083690   -0.620270   -0.299950
 ---------------------------------------------------------------------

 SCF Done:  E(RB3LYP) =  -1274.83704935     A.U. after    1 cycles

 The electronic state is 1-A.
 Alpha  occ. eigenvalues --  -89.02478 -77.38286 -19.33771 -19.33165 -19.26664
 Alpha  occ. eigenvalues --  -14.57014 -14.49271 -10.39213 -10.36575 -10.36519
 Alpha  occ. eigenvalues --  -10.36475 -10.34471  -8.08677  -6.82970  -6.05170
 Alpha  occ. eigenvalues --   -6.04789  -6.04164  -4.99419  -4.99274  -4.99135
 Alpha  occ. eigenvalues --   -1.22793  -1.17791  -1.12871  -1.11327  -1.06503
 Alpha  occ. eigenvalues --   -0.94749  -0.92303  -0.86126  -0.82467  -0.78074
 Alpha  occ. eigenvalues --   -0.75261  -0.73752  -0.71802  -0.71058  -0.70494
 Alpha  occ. eigenvalues --   -0.64664  -0.63405  -0.61420  -0.61110  -0.60371
 Alpha  occ. eigenvalues --   -0.59392  -0.58230  -0.56511  -0.55237  -0.54173
 Alpha  occ. eigenvalues --   -0.53635  -0.52982  -0.52240  -0.50848  -0.50400
 Alpha  occ. eigenvalues --   -0.49107  -0.48702  -0.46708  -0.44962  -0.43981
 Alpha  occ. eigenvalues --   -0.40111  -0.38792
 Alpha virt. eigenvalues --   -0.15050  -0.14128  -0.13184  -0.11552  -0.10918
 Alpha virt. eigenvalues --   -0.10423  -0.09460  -0.09276  -0.08449  -0.08088
 Alpha virt. eigenvalues --   -0.07485  -0.07097  -0.06635  -0.05905  -0.05449

 Mulliken charges:
               1
     1  S    0.111849
     2  P    1.010653
     3  O   -0.688466
     4  O   -0.645785
     5  O   -0.665366
     6  N   -0.603298
     7  N   -0.605622
     8  C   -0.127173
     9  C   -0.314534
    10  C   -0.168324
    11  C   -0.536416
    12  C   -0.228891
    13  H    0.165050
    14  H    0.182021
    15  H    0.171985
    16  H    0.193546
    17  H    0.174197
    18  H    0.150906
    19  H    0.248930
    20  H    0.222982
    21  H    0.209471
    22  H    0.172008
    23  H    0.388725
    24  H    0.466715
    25  H    0.473659
    26  H    0.436476
    27  H    0.383210
    28  H    0.421493
 Sum of Mulliken charges =   1.00000

 Dipole moment (field-independent basis, Debye):
    X=             -4.4828    Y=             -0.7539    Z=              0.1442  Tot=              4.5481
 Quadrupole moment (field-independent basis, Debye-Ang):
   XX=            -51.7895   YY=            -71.0896   ZZ=            -75.4379
   XY=              1.6277   XZ=              6.0388   YZ=              4.8558

  Exact polarizability: 133.918  -4.576 126.781  -0.965  -0.339 107.347
 Approx polarizability: 169.894  -8.389 186.951   0.969  -2.233 168.424

 ESP charges:
               1
     1  S   -0.193666
     2  P    0.928334
     3  O   -0.608579
     4  O   -0.621605
     5  O   -0.623803
     6  N   -0.039906
     7  N   -0.302638
     8  C   -0.136973
     9  C   -0.019077
    10  C   -0.040526
    11  C   -0.014244
    12  C    0.095374
    13  H    0.091435
    14  H    0.080214
    15  H    0.046225
    16  H    0.065223
    17  H    0.042858
    18  H    0.082288
    19  H    0.076472
    20  H    0.131005
    21  H    0.053687
    22  H    0.072372
    23  H    0.278131
    24  H    0.326918
    25  H    0.491602
    26  H    0.495074
    27  H    0.178081
    28  H    0.065725
 Sum of ESP charges =   1.00000

                      1                      2                      3
                      A                      A                      A
 Frequencies --     52.1961                62.5452                76.3757
 Red. masses --      6.1366                 4.1190                 4.8862
 Frc consts  --      0.0099                 0.0095                 0.0168
 IR Inten    --      4.1238                 0.2975                 6.9763

                      4                      5                      6
                      A                      A                      A
 Frequencies --     86.6359               133.8641               158.4455
 Red. masses --      3.0474                 3.5663                 3.5399
 Frc consts  --      0.0135                 0.0377                 0.0524
 IR Inten    --      3.2568                 7.1444                19.8937

                      7                      8                      9
                      A                      A                      A
 Frequencies --    160.7711               190.4867               216.4433
 Red. masses --      1.9022                 3.2068                 3.8436
 Frc consts  --      0.0290                 0.0686                 0.1061
 IR Inten    --     34.0036                 5.8458                38.8725

                     10                     11                     12
                      A                      A                      A
 Frequencies --    241.2844               272.5918               286.3717
 Red. masses --      2.1113                 2.1766                 2.2213
 Frc consts  --      0.0724                 0.0953                 0.1073
 IR Inten    --     28.1427                12.9680                 4.3037

                     13                     14                     15
                      A                      A                      A
 Frequencies --    318.3026               335.3353               346.1209
 Red. masses --      2.5559                 2.5635                 2.4646
 Frc consts  --      0.1526                 0.1698                 0.1740
 IR Inten    --     57.0759                44.1257                26.3368

                     16                     17                     18
                      A                      A                      A
 Frequencies --    371.3642               373.6018               404.0133
 Red. masses --      1.9908                 4.0824                 3.5595
 Frc consts  --      0.1618                 0.3357                 0.3423
 IR Inten    --      3.4589                 6.3236                31.7299

                     19                     20                     21
                      A                      A                      A
 Frequencies --    421.8037               447.9972               500.8445
 Red. masses --      3.1411                 1.6445                 1.9303
 Frc consts  --      0.3293                 0.1945                 0.2853
 IR Inten    --     53.9525                 2.3152                 5.5565

                     22                     23                     24
                      A                      A                      A
 Frequencies --    542.8868               550.0019               636.5479
 Red. masses --      2.3633                 7.6523                 5.2192
 Frc consts  --      0.4104                 1.3639                 1.2460
 IR Inten    --     26.2738               143.3606                13.9148

                     25                     26                     27
                      A                      A                      A
 Frequencies --    787.6231               823.7264               829.2401
 Red. masses --      1.8983                 2.5209                 7.4310
 Frc consts  --      0.6938                 1.0078                 3.0106
 IR Inten    --     17.0770                16.6639               178.7733

                     28                     29                     30
                      A                      A                      A
 Frequencies --    859.7189               875.7312               887.9043
 Red. masses --      1.5931                 1.6773                 4.3887
 Frc consts  --      0.6938                 0.7579                 2.0385
 IR Inten    --     34.3066                44.3980               185.1577

                     31                     32                     33
                      A                      A                      A
 Frequencies --    922.3602               936.1453               954.3751
 Red. masses --      1.3419                 2.2136                 1.8966
 Frc consts  --      0.6726                 1.1430                 1.0178
 IR Inten    --     45.6669                 6.3845                11.3472

                     34                     35                     36
                      A                      A                      A
 Frequencies --    996.6961              1011.7477              1025.2357
 Red. masses --      1.4687                 1.2693                 1.3134
 Frc consts  --      0.8596                 0.7655                 0.8134
 IR Inten    --     13.4662                80.3819               152.4632

                     37                     38                     39
                      A                      A                      A
 Frequencies --   1029.8793              1047.0800              1067.5584
 Red. masses --      1.7836                 2.3435                 1.7756
 Frc consts  --      1.1146                 1.5138                 1.1922
 IR Inten    --     19.1103                10.0993                 7.6885

                     40                     41                     42
                      A                      A                      A
 Frequencies --   1110.8943              1132.4644              1168.2355
 Red. masses --      1.9151                 2.3709                 1.3858
 Frc consts  --      1.3925                 1.7915                 1.1143
 IR Inten    --     33.0732               108.1949                 4.5269

                     43                     44                     45
                      A                      A                      A
 Frequencies --   1235.6184              1238.6505              1263.9340
 Red. masses --      1.7257                 4.1207                 1.1686
 Frc consts  --      1.5524                 3.7250                 1.0999
 IR Inten    --     23.1347               204.4076                 6.4687

                     46                     47                     48
                      A                      A                      A
 Frequencies --   1283.8740              1309.2516              1330.6832
 Red. masses --      1.3056                 1.2824                 1.1798
 Frc consts  --      1.2680                 1.2951                 1.2309
 IR Inten    --      4.8828                14.3961                22.0976

                     49                     50                     51
                      A                      A                      A
 Frequencies --   1342.9083              1374.4916              1394.8480
 Red. masses --      1.1485                 1.3147                 1.2894
 Frc consts  --      1.2203                 1.4634                 1.4781
 IR Inten    --     15.7013                 1.2187                 1.3721

                     52                     53                     54
                      A                      A                      A
 Frequencies --   1413.3808              1418.6369              1467.0082
 Red. masses --      1.3235                 1.3382                 1.1052
 Frc consts  --      1.5578                 1.5868                 1.4013
 IR Inten    --      3.8613                 8.2910                12.2910

                     55                     56                     57
                      A                      A                      A
 Frequencies --   1488.8529              1496.5480              1504.3636
 Red. masses --      1.0844                 1.0974                 1.1496
 Frc consts  --      1.4163                 1.4482                 1.5328
 IR Inten    --     11.7531                 4.5028                 8.1020

                     58                     59                     60
                      A                      A                      A
 Frequencies --   1516.4338              1518.1014              1567.4371
 Red. masses --      1.0760                 1.1143                 1.1326
 Frc consts  --      1.4578                 1.5130                 1.6395
 IR Inten    --     10.8828                 4.9988               174.9731

                     61                     62                     63
                      A                      A                      A
 Frequencies --   1660.6978              1714.1775              2655.3693
 Red. masses --      1.0444                 1.0478                 1.0842
 Frc consts  --      1.6971                 1.8140                 4.5040
 IR Inten    --      7.8557                22.8460               954.1114

                     64                     65                     66
                      A                      A                      A
 Frequencies --   2998.5957              3028.9049              3045.1819
 Red. masses --      1.0688                 1.0657                 1.0696
 Frc consts  --      5.6621                 5.7604                 5.8439
 IR Inten    --     22.6655                30.9148                 6.0028

                     67                     68                     69
                      A                      A                      A
 Frequencies --   3074.7770              3089.7804              3092.5795
 Red. masses --      1.0933                 1.0629                 1.0997
 Frc consts  --      6.0902                 5.9787                 6.1967
 IR Inten    --     13.4226                 3.5099                11.5522

                     70                     71                     72
                      A                      A                      A
 Frequencies --   3095.7516              3110.5979              3148.6269
 Red. masses --      1.0622                 1.0959                 1.1098
 Frc consts  --      5.9976                 6.2478                 6.4825
 IR Inten    --      2.6536                11.4851                 3.9079

                     73                     74                     75
                      A                      A                      A
 Frequencies --   3156.4705              3421.0207              3528.6332
 Red. masses --      1.1063                 1.0590                 1.0789
 Frc consts  --      6.4939                 7.3019                 7.9152
 IR Inten    --      0.7497               134.2513                64.0740

                     76                     77                     78
                      A                      A                      A
 Frequencies --   3528.9952              3789.9078              3796.3872
 Red. masses --      1.0842                 1.0662                 1.0666
 Frc consts  --      7.9550                 9.0230                 9.0575
 IR Inten    --     23.1492               187.8577               237.9250

 - Thermochemistry -
 -------------------
 Temperature   298.150 Kelvin.  Pressure   1.00000 Atm.
 Atom     1 has atomic number 16 and mass  31.97207

 Molecular mass:   215.06193 amu.
 Principal axes and moments of inertia in atomic units:
                           1         2         3
     Eigenvalues --  1697.364173785.340724429.68263
           X            0.99995   0.00976   0.00319
           Y           -0.00985   0.99950   0.03020
           Z           -0.00289  -0.03023   0.99954
 This molecule is an asymmetric top.
 Rotational symmetry number  1.
 Warning -- assumption of classical behavior for rotation
           may cause significant error
 Rotational temperatures (Kelvin)      0.05103     0.02288     0.01955
 Rotational constants (GHZ):           1.06326     0.47677     0.40742
 Zero-point vibrational energy     626573.6 (Joules/Mol)
                                  149.75468 (Kcal/Mol)
 Warning -- explicit consideration of  23 degrees of freedom as
           vibrations may cause significant error
 Vibrational temperatures:     75.10    89.99   109.89   124.65   192.60
          (Kelvin)            227.97   231.31   274.07   311.41   347.15
                              392.20   412.02   457.97   482.47   497.99
                              534.31   537.53   581.29   606.88   644.57
                              720.60   781.09   791.33   915.85  1133.21
                             1185.16  1193.09  1236.94  1259.98  1277.50
                             1327.07  1346.90  1373.13  1434.02  1455.68
                             1475.09  1481.77  1506.51  1535.98  1598.33
                             1629.36  1680.83  1777.78  1782.14  1818.52
                             1847.21  1883.72  1914.56  1932.15  1977.59
                             2006.88  2033.54  2041.10  2110.70  2142.13
                             2153.20  2164.44  2181.81  2184.21  2255.19
                             2389.37  2466.32  3820.48  4314.31  4357.92
                             4381.34  4423.92  4445.50  4449.53  4454.10
                             4475.46  4530.17  4541.46  4922.09  5076.92
                             5077.44  5452.83  5462.15

 Zero-point correction=                           0.238649 (Hartree/Particle)
 Thermal correction to Energy=                    0.253472
 Thermal correction to Enthalpy=                  0.254416
 Thermal correction to Gibbs Free Energy=         0.197053
 Sum of electronic and zero-point Energies=          -1274.598400
 Sum of electronic and thermal Energies=             -1274.583578
 Sum of electronic and thermal Enthalpies=           -1274.582633
 Sum of electronic and thermal Free Energies=        -1274.639997

                     E (Thermal)             CV                S
                      KCal/Mol        Cal/Mol-Kelvin    Cal/Mol-Kelvin
 Total                  159.056             54.822            120.732
 Electronic               0.000              0.000              0.000
 Translational            0.889              2.981             42.001
 Rotational               0.889              2.981             31.721
 Vibrational            157.279             48.861             47.010
 Vibration     1          0.596              1.977              4.732
 Vibration     2          0.597              1.972              4.375
 Vibration     3          0.599              1.965              3.982
 Vibration     4          0.601              1.959              3.735
 Vibration     5          0.613              1.920              2.890
 Vibration     6          0.621              1.893              2.568
 Vibration     7          0.622              1.890              2.541
 Vibration     8          0.634              1.853              2.223
 Vibration     9          0.645              1.816              1.989
 Vibration    10          0.658              1.777              1.793
 Vibration    11          0.676              1.724              1.580
 Vibration    12          0.684              1.699              1.495
 Vibration    13          0.705              1.639              1.319
 Vibration    14          0.716              1.605              1.234
 Vibration    15          0.724              1.583              1.184
 Vibration    16          0.743              1.531              1.074
 Vibration    17          0.745              1.526              1.065
 Vibration    18          0.769              1.461              0.948
 Vibration    19          0.784              1.423              0.886
 Vibration    20          0.807              1.365              0.802
 Vibration    21          0.856              1.248              0.656
 Vibration    22          0.898              1.155              0.559
 Vibration    23          0.905              1.140              0.544

 Optimization completed.
    -- Stationary point found.
 Normal termination of Gaussian 16 at Wed Jul 18 10:58:52 2018.
