 Gaussian 16, Revision A.03,
 Gaussian 16:  ES64L-G16RevA.03 25-Dec-2016

 ----------------------------------------------------------------------
 # opt=maxcycles=150 freq b3lyp/6-31++g(d,p) empiricaldispersion=GD3 in
 t=ultrafine scf=xqc pop=(mk,dipole)
 ----------------------------------------------------------------------

 --------------------------------
 Original File: BENTHIAVALICARB_6
 --------------------------------
 Symbolic Z-matrix:
 Charge =  1 Multiplicity = 1

 SCF Done:  E(RB3LYP) =  -1470.93649532     A.U. after   18 cycles
 SCF Done:  E(RB3LYP) =  -1470.94790776     A.U. after   16 cycles
 SCF Done:  E(RB3LYP) =  -1470.92392326     A.U. after   17 cycles
 SCF Done:  E(RB3LYP) =  -1470.93665887     A.U. after   16 cycles
 SCF Done:  E(RB3LYP) =  -1470.94861392     A.U. after   13 cycles
 SCF Done:  E(RB3LYP) =  -1470.95052697     A.U. after   14 cycles
 SCF Done:  E(RB3LYP) =  -1470.95065718     A.U. after   17 cycles
 SCF Done:  E(RB3LYP) =  -1470.95129756     A.U. after   16 cycles
 SCF Done:  E(RB3LYP) =  -1470.95239744     A.U. after   13 cycles
 SCF Done:  E(RB3LYP) =  -1470.95231650     A.U. after   13 cycles
 SCF Done:  E(RB3LYP) =  -1470.95254827     A.U. after   13 cycles
 SCF Done:  E(RB3LYP) =  -1470.95256536     A.U. after   11 cycles
 SCF Done:  E(RB3LYP) =  -1470.95256843     A.U. after   12 cycles
 SCF Done:  E(RB3LYP) =  -1470.95256849     A.U. after   10 cycles
 SCF Done:  E(RB3LYP) =  -1470.95256826     A.U. after   10 cycles
 SCF Done:  E(RB3LYP) =  -1470.95255965     A.U. after   13 cycles
 SCF Done:  E(RB3LYP) =  -1470.95257205     A.U. after   13 cycles
 SCF Done:  E(RB3LYP) =  -1470.95257498     A.U. after   12 cycles
 SCF Done:  E(RB3LYP) =  -1470.95257533     A.U. after   10 cycles
 Optimization completed.
    -- Stationary point found.
 Normal termination of Gaussian 16 at Mon Jul 30 18:10:36 2018.

 ----------------------------------------------------------------------
 #N Geom=AllCheck Guess=TCheck SCRF=Check GenChk RB3LYP/6-31++G(d,p) Fr
 eq
 ----------------------------------------------------------------------

 Structure from the checkpoint file:  "/scratch/cieritan/chk/BENTHIAVALICARB_6.chk"
 --------------------------------
 Original File: BENTHIAVALICARB_6
 --------------------------------
 Charge =  1 Multiplicity = 1

                         Standard orientation:
 ---------------------------------------------------------------------
 Center     Atomic      Atomic             Coordinates (Angstroms)
 Number     Number       Type             X           Y           Z
 ---------------------------------------------------------------------
      1         16           0        2.521206   -1.953220   -0.822206
      2          9           0        6.783956    0.929348   -0.155844
      3          8           0       -0.957074    0.818926    0.968316
      4          8           0       -4.141038   -1.592025   -1.050431
      5          8           0       -5.387572   -1.753565    0.849169
      6          7           0       -1.275140   -0.854929   -0.556075
      7          7           0       -4.002634    0.040827    0.517609
      8          7           0        1.444959   -0.029663    0.439463
      9          6           0       -3.191405    2.328067   -0.054556
     10          6           0       -3.049393    0.811717   -0.280770
     11          6           0       -0.242109   -1.790267   -0.076289
     12          6           0       -1.654739    0.278921    0.093743
     13          6           0       -4.626469    2.789549   -0.350864
     14          6           0       -2.185975    3.089713   -0.933412
     15          6           0        1.145347   -1.183614   -0.125881
     16          6           0       -0.547023   -2.342328    1.332590
     17          6           0        3.549120   -0.618463   -0.312224
     18          6           0        2.779504    0.350195    0.362155
     19          6           0       -4.585610   -1.142506    0.175332
     20          6           0        4.921848   -0.449690   -0.505533
     21          6           0        3.358706    1.522383    0.864323
     22          6           0        5.468265    0.720169    0.003926
     23          6           0        4.721781    1.700622    0.678456
     24          1           0       -2.953038    2.529522    0.998080
     25          1           0       -3.246513    0.596517   -1.335717
     26          1           0       -0.249462   -2.620495   -0.787374
     27          1           0       -5.367059    2.295435    0.283483
     28          1           0       -4.892744    2.589876   -1.395640
     29          1           0       -4.712329    3.867358   -0.185968
     30          1           0       -1.151114    2.815502   -0.709710
     31          1           0       -2.284314    4.166296   -0.768823
     32          1           0       -2.376260    2.901020   -1.997056
     33          1           0       -1.975827   -1.265860   -1.165729
     34          1           0       -4.258439    0.383877    1.434110
     35          1           0       -0.580066   -1.535624    2.067417
     36          1           0        0.214036   -3.067600    1.633262
     37          1           0       -1.518050   -2.843720    1.314925
     38          1           0        5.545611   -1.171973   -1.018486
     39          1           0        2.760090    2.263038    1.383384
     40          1           0        5.231032    2.584739    1.044413
     41          1           0       -4.671892   -2.378698   -1.256113
     42          1           0        0.635531    0.511051    0.850052
 ---------------------------------------------------------------------

 SCF Done:  E(RB3LYP) =  -1470.95257533     A.U. after    1 cycles

 The electronic state is 1-A.
 Alpha  occ. eigenvalues --  -89.10290 -24.85240 -19.32125 -19.28744 -19.24246
 Alpha  occ. eigenvalues --  -14.57650 -14.52366 -14.49107 -10.45876 -10.45767
 Alpha  occ. eigenvalues --  -10.44769 -10.42824 -10.41902 -10.40574 -10.40127
 Alpha  occ. eigenvalues --  -10.36779 -10.36172 -10.35870 -10.35039 -10.33003
 Alpha  occ. eigenvalues --  -10.31021 -10.28230 -10.27561  -8.16121  -6.12561
 Alpha  occ. eigenvalues --   -6.12173  -6.11815  -1.36228  -1.22661  -1.20479
 Alpha  occ. eigenvalues --   -1.17985  -1.13069  -1.09036  -1.05905  -1.02688
 Alpha  occ. eigenvalues --   -0.99340  -0.95030  -0.92108  -0.91204  -0.89569
 Alpha  occ. eigenvalues --   -0.84175  -0.81588  -0.79387  -0.79103  -0.78521
 Alpha  occ. eigenvalues --   -0.77379  -0.75947  -0.73474  -0.70887  -0.70000
 Alpha  occ. eigenvalues --   -0.68631  -0.67492  -0.65517  -0.65198  -0.64245
 Alpha  occ. eigenvalues --   -0.62681  -0.61345  -0.61125  -0.60226  -0.60176
 Alpha  occ. eigenvalues --   -0.59684  -0.59107  -0.58838  -0.57185  -0.56729
 Alpha  occ. eigenvalues --   -0.56635  -0.55596  -0.54696  -0.53838  -0.53418
 Alpha  occ. eigenvalues --   -0.53331  -0.52857  -0.52089  -0.50985  -0.49995
 Alpha  occ. eigenvalues --   -0.49941  -0.49751  -0.48455  -0.48073  -0.45880
 Alpha  occ. eigenvalues --   -0.44808  -0.44758  -0.44176  -0.43135  -0.42133
 Alpha  occ. eigenvalues --   -0.40662  -0.39391  -0.39343  -0.37831
 Alpha virt. eigenvalues --   -0.22101  -0.17159  -0.16570  -0.15050  -0.14500
 Alpha virt. eigenvalues --   -0.12720  -0.10931  -0.09987  -0.09495  -0.09005
 Alpha virt. eigenvalues --   -0.08678  -0.08363  -0.07640  -0.07452  -0.07273

 Mulliken charges:
               1
     1  S    0.502212
     2  F   -0.287753
     3  O   -0.484866
     4  O   -0.524144
     5  O   -0.419321
     6  N   -0.122362
     7  N   -0.387190
     8  N   -0.038336
     9  C    0.386354
    10  C   -0.253639
    11  C    0.139737
    12  C   -0.320308
    13  C   -0.506463
    14  C   -0.670796
    15  C   -0.410421
    16  C   -0.399604
    17  C    0.560131
    18  C    0.009512
    19  C    0.628880
    20  C   -0.304939
    21  C   -0.514540
    22  C    0.003314
    23  C    0.075692
    24  H    0.193450
    25  H    0.172994
    26  H    0.153582
    27  H    0.152049
    28  H    0.166506
    29  H    0.175968
    30  H    0.139612
    31  H    0.178555
    32  H    0.161251
    33  H    0.455364
    34  H    0.395655
    35  H    0.197719
    36  H    0.179423
    37  H    0.186019
    38  H    0.161835
    39  H    0.145294
    40  H    0.176003
    41  H    0.440576
    42  H    0.506996
 Sum of Mulliken charges =   1.00000

 Dipole moment (field-independent basis, Debye):
    X=              4.2719    Y=             -1.5159    Z=             -1.7804  Tot=              4.8701
 Quadrupole moment (field-independent basis, Debye-Ang):
   XX=           -105.9565   YY=           -114.5820   ZZ=           -135.5294
   XY=             -7.8773   XZ=             10.1963   YZ=             10.1463

  Exact polarizability: 293.920  26.114 222.365  -9.292  17.643 156.068
 Approx polarizability: 395.975  45.577 351.797 -17.831  57.470 266.199

 ESP charges:
               1
     1  S    0.113349
     2  F   -0.189439
     3  O   -0.587955
     4  O   -0.594204
     5  O   -0.554428
     6  N   -0.671077
     7  N   -0.438646
     8  N   -0.113015
     9  C    0.389413
    10  C   -0.059308
    11  C    0.243382
    12  C    0.660456
    13  C   -0.406832
    14  C   -0.528217
    15  C    0.007255
    16  C   -0.387035
    17  C    0.191634
    18  C    0.009138
    19  C    0.719348
    20  C   -0.396598
    21  C   -0.149982
    22  C    0.408917
    23  C   -0.196652
    24  H   -0.001503
    25  H    0.097274
    26  H    0.144738
    27  H    0.097419
    28  H    0.116757
    29  H    0.114845
    30  H    0.112817
    31  H    0.158111
    32  H    0.123330
    33  H    0.362573
    34  H    0.310101
    35  H    0.151347
    36  H    0.125582
    37  H    0.143381
    38  H    0.268895
    39  H    0.187715
    40  H    0.194112
    41  H    0.438749
    42  H    0.384254
 Sum of ESP charges =   1.00000

                      1                      2                      3
                      A                      A                      A
 Frequencies --     18.6832                22.7228                47.9414
 Red. masses --      7.2999                 5.5153                 7.8387
 Frc consts  --      0.0015                 0.0017                 0.0106
 IR Inten    --      1.2944                 0.7724                 0.3764

                      4                      5                      6
                      A                      A                      A
 Frequencies --     53.1342                69.6441                80.4894
 Red. masses --      5.7381                 2.9710                 4.9226
 Frc consts  --      0.0095                 0.0085                 0.0188
 IR Inten    --      2.2336                 0.6077                 0.2770

                      7                      8                      9
                      A                      A                      A
 Frequencies --     89.8496               104.6526               122.0606
 Red. masses --      5.9816                 5.5865                 4.2480
 Frc consts  --      0.0285                 0.0360                 0.0373
 IR Inten    --      1.5508                 8.1798                 2.0529

                     10                     11                     12
                      A                      A                      A
 Frequencies --    144.4654               160.7472               175.5059
 Red. masses --      4.5071                 5.1640                 4.0324
 Frc consts  --      0.0554                 0.0786                 0.0732
 IR Inten    --      2.6012                 1.5616                12.9627

                     13                     14                     15
                      A                      A                      A
 Frequencies --    201.1434               206.6408               219.5115
 Red. masses --      5.9131                 5.5573                 1.1752
 Frc consts  --      0.1410                 0.1398                 0.0334
 IR Inten    --      0.5818                 4.1997                 1.1825

                     16                     17                     18
                      A                      A                      A
 Frequencies --    234.2156               247.2631               251.9805
 Red. masses --      2.5051                 1.1759                 1.4226
 Frc consts  --      0.0810                 0.0424                 0.0532
 IR Inten    --      1.2305                 0.4917                 0.9647

                     19                     20                     21
                      A                      A                      A
 Frequencies --    273.0036               312.0941               317.6999
 Red. masses --      4.6112                 5.9683                 4.1914
 Frc consts  --      0.2025                 0.3425                 0.2493
 IR Inten    --      0.7377                 1.7134                 0.9634

                     22                     23                     24
                      A                      A                      A
 Frequencies --    335.7899               361.4697               372.1729
 Red. masses --      4.7519                 5.8963                 4.7622
 Frc consts  --      0.3157                 0.4539                 0.3886
 IR Inten    --     21.1103                 5.0934                11.4315

                     25                     26                     27
                      A                      A                      A
 Frequencies --    420.6417               427.8431               435.8446
 Red. masses --      4.5092                 6.6067                 3.2091
 Frc consts  --      0.4701                 0.7125                 0.3592
 IR Inten    --      2.5878                 3.5144                 6.0321

                     28                     29                     30
                      A                      A                      A
 Frequencies --    443.4342               457.7834               460.8038
 Red. masses --      2.8700                 3.9273                 4.8155
 Frc consts  --      0.3325                 0.4849                 0.6025
 IR Inten    --      1.5563                 8.5210                31.6518

                     31                     32                     33
                      A                      A                      A
 Frequencies --    509.8986               530.3020               546.4062
 Red. masses --      1.2406                 3.7295                 5.3838
 Frc consts  --      0.1900                 0.6179                 0.9471
 IR Inten    --     12.5122                 7.6046                 5.9592

                     34                     35                     36
                      A                      A                      A
 Frequencies --    573.3828               582.1882               588.6470
 Red. masses --      1.1841                 4.5083                 3.8775
 Frc consts  --      0.2294                 0.9003                 0.7916
 IR Inten    --    193.0641                30.4908                 2.5137

                     37                     38                     39
                      A                      A                      A
 Frequencies --    608.9961               614.7016               622.3463
 Red. masses --      1.9931                 4.2433                 1.7750
 Frc consts  --      0.4355                 0.9447                 0.4050
 IR Inten    --     25.6050                23.4361                83.7995

                     40                     41                     42
                      A                      A                      A
 Frequencies --    644.9613               701.9932               714.5635
 Red. masses --      5.3756                 7.7515                 5.2885
 Frc consts  --      1.3175                 2.2506                 1.5910
 IR Inten    --     17.7117                 6.1722                 0.4408

                     43                     44                     45
                      A                      A                      A
 Frequencies --    738.0645               756.8353               763.9921
 Red. masses --      4.5797                 9.3536                 5.6896
 Frc consts  --      1.4699                 3.1567                 1.9566
 IR Inten    --      4.4449                43.6305                 4.0661

                     46                     47                     48
                      A                      A                      A
 Frequencies --    819.0054               832.2124               836.4009
 Red. masses --      4.6387                 3.6901                 1.4174
 Frc consts  --      1.8333                 1.5058                 0.5842
 IR Inten    --     63.8520                 4.6690                22.2332

                     49                     50                     51
                      A                      A                      A
 Frequencies --    870.0148               873.2584               906.2128
 Red. masses --      2.4835                 1.4710                 3.6333
 Frc consts  --      1.1076                 0.6609                 1.7580
 IR Inten    --      0.4984                35.2562                20.7119

                     52                     53                     54
                      A                      A                      A
 Frequencies --    921.2766               930.1560               943.2874
 Red. masses --      5.3736                 4.1740                 2.6687
 Frc consts  --      2.6872                 2.1277                 1.3991
 IR Inten    --     15.8434                39.8346                 8.3425

                     55                     56                     57
                      A                      A                      A
 Frequencies --    954.6673               972.0979               976.2173
 Red. masses --      1.2184                 1.3129                 1.5371
 Frc consts  --      0.6542                 0.7310                 0.8631
 IR Inten    --      4.8078                 0.7534                 3.1905

                     58                     59                     60
                      A                      A                      A
 Frequencies --    983.2379              1031.3453              1040.3718
 Red. masses --      2.1446                 1.1417                 2.1635
 Frc consts  --      1.2216                 0.7155                 1.3797
 IR Inten    --      7.6446                87.5870                 8.3264

                     61                     62                     63
                      A                      A                      A
 Frequencies --   1057.4020              1078.1524              1103.3378
 Red. masses --      2.5679                 2.5641                 2.4280
 Frc consts  --      1.6917                 1.7561                 1.7414
 IR Inten    --     10.8793                23.4908                34.6969

                     64                     65                     66
                      A                      A                      A
 Frequencies --   1105.9503              1146.9250              1153.2594
 Red. masses --      2.3091                 2.2188                 1.2533
 Frc consts  --      1.6640                 1.7197                 0.9821
 IR Inten    --     23.1364                 4.2149                12.8747

                     67                     68                     69
                      A                      A                      A
 Frequencies --   1169.1971              1185.0811              1200.4457
 Red. masses --      2.4002                 2.3415                 1.7511
 Frc consts  --      1.9332                 1.9375                 1.4868
 IR Inten    --      1.9360               107.2351                61.9860

                     70                     71                     72
                      A                      A                      A
 Frequencies --   1216.8478              1230.9173              1260.0818
 Red. masses --      1.7166                 1.9867                 1.9008
 Frc consts  --      1.4975                 1.7735                 1.7782
 IR Inten    --    113.9841                 7.9122                82.7519

                     73                     74                     75
                      A                      A                      A
 Frequencies --   1286.0124              1293.5268              1315.9315
 Red. masses --      1.6901                 3.2855                 1.3595
 Frc consts  --      1.6468                 3.2389                 1.3871
 IR Inten    --    114.4616               260.4337                11.5787

                     76                     77                     78
                      A                      A                      A
 Frequencies --   1325.5666              1345.4147              1367.4686
 Red. masses --      1.4787                 1.3869                 3.2743
 Frc consts  --      1.5309                 1.4791                 3.6075
 IR Inten    --      4.6643                 6.6612                29.7049

                     79                     80                     81
                      A                      A                      A
 Frequencies --   1371.3022              1398.4980              1401.2094
 Red. masses --      1.4085                 1.8710                 1.6858
 Frc consts  --      1.5606                 2.1559                 1.9502
 IR Inten    --      1.6612                88.6524                46.1581

                     82                     83                     84
                      A                      A                      A
 Frequencies --   1417.8200              1419.9077              1423.0818
 Red. masses --      2.1858                 1.2645                 1.2225
 Frc consts  --      2.5888                 1.5021                 1.4586
 IR Inten    --     88.6499                11.8733                25.9051

                     85                     86                     87
                      A                      A                      A
 Frequencies --   1440.6580              1441.8435              1456.5118
 Red. masses --      1.9149                 1.5468                 2.1366
 Frc consts  --      2.3416                 1.8946                 2.6706
 IR Inten    --     28.8024                19.5896                62.4159

                     88                     89                     90
                      A                      A                      A
 Frequencies --   1482.3474              1491.7431              1492.6018
 Red. masses --      1.5390                 1.0476                 1.0469
 Frc consts  --      1.9925                 1.3735                 1.3742
 IR Inten    --     26.1250                10.2106                15.5405

                     91                     92                     93
                      A                      A                      A
 Frequencies --   1502.3677              1503.5615              1512.3710
 Red. masses --      1.0446                 1.0838                 3.4481
 Frc consts  --      1.3892                 1.4436                 4.6468
 IR Inten    --      5.4247                 2.7889               166.5121

                     94                     95                     96
                      A                      A                      A
 Frequencies --   1513.5308              1523.8394              1564.2702
 Red. masses --      1.0687                 1.0434                 2.4963
 Frc consts  --      1.4424                 1.4275                 3.5990
 IR Inten    --      5.7556                17.7242                85.9841

                     97                     98                     99
                      A                      A                      A
 Frequencies --   1583.9651              1628.8167              1648.8240
 Red. masses --      2.4381                 5.8914                 6.6194
 Frc consts  --      3.6041                 9.2089                10.6026
 IR Inten    --     54.7731               193.5158                43.0210

                    100                    101                    102
                      A                      A                      A
 Frequencies --   1711.0395              1838.2114              2884.2422
 Red. masses --      5.0754                 7.9865                 1.1023
 Frc consts  --      8.7547                15.9000                 5.4026
 IR Inten    --    117.0799               752.7453              1554.4137

                    103                    104                    105
                      A                      A                      A
 Frequencies --   3037.5732              3040.4304              3046.4199
 Red. masses --      1.0454                 1.0560                 1.0595
 Frc consts  --      5.6834                 5.7517                 5.7931
 IR Inten    --     13.5921                 9.5009                16.7457

                    106                    107                    108
                      A                      A                      A
 Frequencies --   3062.3778              3085.2921              3097.0931
 Red. masses --      1.0345                 1.0852                 1.0875
 Frc consts  --      5.7163                 6.0861                 6.1458
 IR Inten    --      3.2628                 4.3740                 1.6052

                    109                    110                    111
                      A                      A                      A
 Frequencies --   3109.8427              3115.5627              3127.3969
 Red. masses --      1.0985                 1.0985                 1.1023
 Frc consts  --      6.2594                 6.2826                 6.3519
 IR Inten    --     10.9612                30.7365                22.9811

                    112                    113                    114
                      A                      A                      A
 Frequencies --   3130.8864              3142.5309              3159.7348
 Red. masses --      1.1024                 1.1043                 1.1041
 Frc consts  --      6.3671                 6.4253                 6.4947
 IR Inten    --     21.0136                 7.8307                 2.0831

                    115                    116                    117
                      A                      A                      A
 Frequencies --   3217.5028              3233.9747              3234.2839
 Red. masses --      1.0913                 1.0960                 1.0941
 Frc consts  --      6.6566                 6.7534                 6.7434
 IR Inten    --      0.2294                 3.6992                 5.8109

                    118                    119                    120
                      A                      A                      A
 Frequencies --   3559.2610              3633.1369              3781.7588
 Red. masses --      1.0793                 1.0776                 1.0654
 Frc consts  --      8.0556                 8.3804                 8.9778
 IR Inten    --    159.0326                55.6045               148.2446

 - Thermochemistry -
 -------------------
 Temperature   298.150 Kelvin.  Pressure   1.00000 Atm.
 Atom     1 has atomic number 16 and mass  31.97207

 Molecular mass:   340.11312 amu.
 Principal axes and moments of inertia in atomic units:
                           1         2         3
     Eigenvalues --  3646.57936********************
           X            0.99990  -0.01337   0.00464
           Y            0.01344   0.99980  -0.01469
           Z           -0.00444   0.01475   0.99988
 This molecule is an asymmetric top.
 Rotational symmetry number  1.
 Warning -- assumption of classical behavior for rotation
           may cause significant error
 Rotational temperatures (Kelvin)      0.02375     0.00523     0.00455
 Rotational constants (GHZ):           0.49491     0.10900     0.09473
 Zero-point vibrational energy     883833.5 (Joules/Mol)
                                  211.24126 (Kcal/Mol)
 Warning -- explicit consideration of  38 degrees of freedom as
           vibrations may cause significant error
 Vibrational temperatures:     26.88    32.69    68.98    76.45   100.20
          (Kelvin)            115.81   129.27   150.57   175.62   207.85
                              231.28   252.51   289.40   297.31   315.83
                              336.98   355.76   362.54   392.79   449.03
                              457.10   483.13   520.07   535.47   605.21
                              615.57   627.08   638.00   658.65   662.99
                              733.63   762.99   786.16   824.97   837.64
                              846.93   876.21   884.42   895.42   927.96
                             1010.01  1028.10  1061.91  1088.92  1099.21
                             1178.37  1197.37  1203.39  1251.76  1256.42
                             1303.84  1325.51  1338.29  1357.18  1373.55
                             1398.63  1404.56  1414.66  1483.88  1496.86
                             1521.37  1551.22  1587.46  1591.22  1650.17
                             1659.28  1682.21  1705.07  1727.17  1750.77
                             1771.02  1812.98  1850.28  1861.10  1893.33
                             1907.19  1935.75  1967.48  1973.00  2012.13
                             2016.03  2039.93  2042.93  2047.50  2072.79
                             2074.49  2095.60  2132.77  2146.29  2147.52
                             2161.57  2163.29  2175.96  2177.63  2192.46
                             2250.64  2278.97  2343.50  2372.29  2461.80
                             2644.78  4149.78  4370.39  4374.50  4383.12
                             4406.08  4439.05  4456.03  4474.37  4482.60
                             4499.63  4504.65  4521.40  4546.15  4629.27
                             4652.97  4653.41  5120.98  5227.27  5441.11

 Zero-point correction=                           0.336634 (Hartree/Particle)
 Thermal correction to Energy=                    0.359017
 Thermal correction to Enthalpy=                  0.359961
 Thermal correction to Gibbs Free Energy=         0.283653
 Sum of electronic and zero-point Energies=          -1470.615941
 Sum of electronic and thermal Energies=             -1470.593559
 Sum of electronic and thermal Enthalpies=           -1470.592614
 Sum of electronic and thermal Free Energies=        -1470.668922

                     E (Thermal)             CV                S
                      KCal/Mol        Cal/Mol-Kelvin    Cal/Mol-Kelvin
 Total                  225.286             85.134            160.603
 Electronic               0.000              0.000              0.000
 Translational            0.889              2.981             43.367
 Rotational               0.889              2.981             35.396
 Vibrational            223.509             79.172             81.840
 Vibration     1          0.593              1.986              6.769
 Vibration     2          0.593              1.985              6.381
 Vibration     3          0.595              1.978              4.901
 Vibration     4          0.596              1.976              4.697
 Vibration     5          0.598              1.969              4.163
 Vibration     6          0.600              1.962              3.879
 Vibration     7          0.602              1.956              3.663
 Vibration     8          0.605              1.946              3.366
 Vibration     9          0.610              1.931              3.067
 Vibration    10          0.616              1.909              2.744
 Vibration    11          0.622              1.890              2.541
 Vibration    12          0.627              1.873              2.376
 Vibration    13          0.638              1.838              2.123
 Vibration    14          0.641              1.830              2.073
 Vibration    15          0.647              1.811              1.963
 Vibration    16          0.654              1.789              1.846
 Vibration    17          0.661              1.767              1.750
 Vibration    18          0.664              1.759              1.717
 Vibration    19          0.676              1.723              1.577
 Vibration    20          0.700              1.651              1.351
 Vibration    21          0.704              1.640              1.322
 Vibration    22          0.717              1.604              1.232
 Vibration    23          0.736              1.552              1.116
 Vibration    24          0.744              1.529              1.071
 Vibration    25          0.783              1.425              0.890
 Vibration    26          0.789              1.410              0.866
 Vibration    27          0.796              1.392              0.840
 Vibration    28          0.803              1.375              0.816
 Vibration    29          0.816              1.344              0.773
 Vibration    30          0.819              1.337              0.764
 Vibration    31          0.865              1.228              0.634
 Vibration    32          0.885              1.183              0.587
 Vibration    33          0.902              1.148              0.552
 Vibration    34          0.930              1.089              0.498
 Vibration    35          0.939              1.070              0.481
 Vibration    36          0.946              1.056              0.470
 Vibration    37          0.968              1.013              0.434
 Vibration    38          0.974              1.001              0.425

 Optimization completed.
    -- Stationary point found.
 Normal termination of Gaussian 16 at Mon Jul 30 19:02:11 2018.
