 Gaussian 16, Revision A.03,
 Gaussian 16:  ES64L-G16RevA.03 25-Dec-2016

 ----------------------------------------------------------------------
 # opt=maxcycles=150 freq b3lyp/6-31++g(d,p) empiricaldispersion=GD3 in
 t=ultrafine scf=xqc pop=(mk,dipole)
 ----------------------------------------------------------------------

 -----------------------------
 Original File: PROSULFOCARB_1
 -----------------------------
 Symbolic Z-matrix:
 Charge =  1 Multiplicity = 1

 SCF Done:  E(RB3LYP) =  -1074.76834312     A.U. after   16 cycles
 SCF Done:  E(RB3LYP) =  -1074.77791206     A.U. after   13 cycles
 SCF Done:  E(RB3LYP) =  -1074.77859156     A.U. after   13 cycles
 SCF Done:  E(RB3LYP) =  -1074.77872799     A.U. after   12 cycles
 SCF Done:  E(RB3LYP) =  -1074.77875416     A.U. after   12 cycles
 SCF Done:  E(RB3LYP) =  -1074.77876536     A.U. after   12 cycles
 SCF Done:  E(RB3LYP) =  -1074.77876805     A.U. after   11 cycles
 SCF Done:  E(RB3LYP) =  -1074.77876861     A.U. after   11 cycles
 SCF Done:  E(RB3LYP) =  -1074.77876895     A.U. after   11 cycles
 SCF Done:  E(RB3LYP) =  -1074.77876910     A.U. after    9 cycles
 SCF Done:  E(RB3LYP) =  -1074.77876914     A.U. after    8 cycles
 Optimization completed.
    -- Stationary point found.
 Normal termination of Gaussian 16 at Mon Jul 30 20:23:38 2018.

 ----------------------------------------------------------------------
 #N Geom=AllCheck Guess=TCheck SCRF=Check GenChk RB3LYP/6-31++G(d,p) Fr
 eq
 ----------------------------------------------------------------------

 Structure from the checkpoint file:  "/scratch/cieritan/chk/PROSULFOCARB_1.chk"
 -----------------------------
 Original File: PROSULFOCARB_1
 -----------------------------
 Charge =  1 Multiplicity = 1

                         Standard orientation:
 ---------------------------------------------------------------------
 Center     Atomic      Atomic             Coordinates (Angstroms)
 Number     Number       Type             X           Y           Z
 ---------------------------------------------------------------------
      1         16           0       -0.461372    0.174690    0.034767
      2          8           0        1.039126   -1.755423   -0.859810
      3          7           0        2.223652    0.068247   -0.061243
      4          6           0        3.534058   -0.530226   -0.417158
      5          6           0        2.260206    1.408445    0.581282
      6          6           0        4.090722   -1.443065    0.683959
      7          6           0        2.241461    2.549977   -0.440951
      8          6           0        1.083414   -0.546855   -0.311971
      9          6           0        5.465308   -2.002703    0.301598
     10          6           0        2.305354    3.913614    0.256161
     11          6           0       -1.664672   -1.195107   -0.428799
     12          6           0       -3.046361   -0.675839   -0.150219
     13          6           0       -3.759615    0.003859   -1.148669
     14          6           0       -3.629334   -0.859557    1.112382
     15          6           0       -5.042897    0.487459   -0.889405
     16          6           0       -4.912690   -0.375761    1.370428
     17          6           0       -5.619696    0.298772    0.370235
     18          1           0        4.211946    0.305904   -0.604264
     19          1           0        3.448958   -1.053849   -1.377866
     20          1           0        3.172616    1.434204    1.183604
     21          1           0        1.419601    1.484796    1.276424
     22          1           0        4.159421   -0.869542    1.615428
     23          1           0        3.387798   -2.263437    0.880205
     24          1           0        3.089731    2.437176   -1.126969
     25          1           0        1.329803    2.475944   -1.044486
     26          1           0        6.191110   -1.198108    0.143292
     27          1           0        5.850677   -2.647074    1.095665
     28          1           0        5.416396   -2.598487   -0.616640
     29          1           0        3.220638    4.017026    0.849053
     30          1           0        2.292921    4.720930   -0.480488
     31          1           0        1.450087    4.058750    0.924842
     32          1           0       -1.502049   -1.418753   -1.483609
     33          1           0       -1.408638   -2.064299    0.178370
     34          1           0       -3.315051    0.146104   -2.130534
     35          1           0       -3.083255   -1.388604    1.889471
     36          1           0       -5.593093    1.004498   -1.669152
     37          1           0       -5.361819   -0.529331    2.346522
     38          1           0       -6.619296    0.671703    0.570287
     39          1           0        1.913339   -2.153010   -1.001494
 ---------------------------------------------------------------------

 SCF Done:  E(RB3LYP) =  -1074.77876914     A.U. after    2 cycles

 The electronic state is 1-A.
 Alpha  occ. eigenvalues --  -89.06236 -19.39248 -14.56916 -10.51058 -10.39350
 Alpha  occ. eigenvalues --  -10.37989 -10.36545 -10.33643 -10.32274 -10.31838
 Alpha  occ. eigenvalues --  -10.30479 -10.30218 -10.30213 -10.29537 -10.29509
 Alpha  occ. eigenvalues --  -10.29454 -10.29431  -8.12129  -6.08689  -6.08154
 Alpha  occ. eigenvalues --   -6.07701  -1.28838  -1.14205  -0.98480  -0.96232
 Alpha  occ. eigenvalues --   -0.93937  -0.92562  -0.88665  -0.85214  -0.84646
 Alpha  occ. eigenvalues --   -0.84292  -0.80583  -0.78488  -0.74979  -0.74025
 Alpha  occ. eigenvalues --   -0.71417  -0.70282  -0.69168  -0.67004  -0.63483
 Alpha  occ. eigenvalues --   -0.62228  -0.61633  -0.60498  -0.59767  -0.58804
 Alpha  occ. eigenvalues --   -0.57726  -0.57101  -0.56463  -0.55495  -0.53694
 Alpha  occ. eigenvalues --   -0.53094  -0.52734  -0.52310  -0.52242  -0.51025
 Alpha  occ. eigenvalues --   -0.50268  -0.49335  -0.48831  -0.48009  -0.47754
 Alpha  occ. eigenvalues --   -0.46738  -0.46424  -0.45483  -0.45356  -0.44793
 Alpha  occ. eigenvalues --   -0.40551  -0.35779  -0.35767
 Alpha virt. eigenvalues --   -0.18670  -0.15387  -0.14308  -0.12252  -0.11394
 Alpha virt. eigenvalues --   -0.10644  -0.10491  -0.10344  -0.09256  -0.08427
 Alpha virt. eigenvalues --   -0.07882  -0.07642  -0.07627  -0.06994  -0.06337

 Mulliken charges:
               1
     1  S    0.513893
     2  O   -0.291916
     3  N   -0.007542
     4  C   -0.437522
     5  C   -0.538255
     6  C    0.109488
     7  C    0.165043
     8  C   -0.275043
     9  C   -0.648077
    10  C   -0.695039
    11  C   -0.727702
    12  C    0.369545
    13  C    0.028990
    14  C    0.004811
    15  C   -0.296048
    16  C   -0.292612
    17  C    0.009860
    18  H    0.172466
    19  H    0.176359
    20  H    0.192700
    21  H    0.174754
    22  H    0.179214
    23  H    0.149427
    24  H    0.174110
    25  H    0.171331
    26  H    0.167160
    27  H    0.189140
    28  H    0.153625
    29  H    0.154197
    30  H    0.183434
    31  H    0.164196
    32  H    0.276612
    33  H    0.268029
    34  H    0.124130
    35  H    0.122287
    36  H    0.139885
    37  H    0.139799
    38  H    0.134819
    39  H    0.400453
 Sum of Mulliken charges =   1.00000

 Dipole moment (field-independent basis, Debye):
    X=              6.0854    Y=             -1.2044    Z=             -0.5550  Tot=              6.2282
 Quadrupole moment (field-independent basis, Debye-Ang):
   XX=            -48.3371   YY=            -94.9413   ZZ=           -102.6671
   XY=             -5.5748   XZ=             -1.8314   YZ=              0.1531

  Exact polarizability: 276.495 -10.777 167.387  -4.303  -3.875 159.181
 Approx polarizability: 349.079 -19.148 242.022  -8.992  -7.326 263.717

 ESP charges:
               1
     1  S    0.025683
     2  O   -0.493028
     3  N   -0.277298
     4  C   -0.029060
     5  C   -0.200002
     6  C    0.070465
     7  C    0.320365
     8  C    0.476841
     9  C   -0.324356
    10  C   -0.340006
    11  C   -0.495380
    12  C    0.301330
    13  C   -0.206326
    14  C   -0.214954
    15  C   -0.098909
    16  C   -0.078758
    17  C   -0.126422
    18  H    0.131147
    19  H    0.070768
    20  H    0.152160
    21  H    0.098374
    22  H    0.054756
    23  H    0.018838
    24  H   -0.022677
    25  H   -0.044519
    26  H    0.098085
    27  H    0.123951
    28  H    0.090296
    29  H    0.084817
    30  H    0.106242
    31  H    0.103239
    32  H    0.223887
    33  H    0.217895
    34  H    0.145716
    35  H    0.141125
    36  H    0.142525
    37  H    0.136402
    38  H    0.145947
    39  H    0.470843
 Sum of ESP charges =   1.00000

                      1                      2                      3
                      A                      A                      A
 Frequencies --     20.1961                25.6724                37.9968
 Red. masses --      4.2845                 3.9722                 4.3477
 Frc consts  --      0.0010                 0.0015                 0.0037
 IR Inten    --      0.0064                 0.2177                 0.0981

                      4                      5                      6
                      A                      A                      A
 Frequencies --     51.9653                69.1948                72.6823
 Red. masses --      3.2896                 4.1225                 4.6200
 Frc consts  --      0.0052                 0.0116                 0.0144
 IR Inten    --      0.3076                 0.7577                 3.1512

                      7                      8                      9
                      A                      A                      A
 Frequencies --     80.7138                90.3202               105.9036
 Red. masses --      4.0117                 1.6483                 1.7328
 Frc consts  --      0.0154                 0.0079                 0.0115
 IR Inten    --      1.3123                 0.1230                 0.3568

                     10                     11                     12
                      A                      A                      A
 Frequencies --    127.1464               156.4026               204.4131
 Red. masses --      4.3255                 5.3358                 3.6985
 Frc consts  --      0.0412                 0.0769                 0.0911
 IR Inten    --      0.1502                 0.4331                 0.3149

                     13                     14                     15
                      A                      A                      A
 Frequencies --    241.9241               245.5768               256.4100
 Red. masses --      1.1857                 1.2240                 2.8310
 Frc consts  --      0.0409                 0.0435                 0.1097
 IR Inten    --      0.1031                 0.0368                 0.9413

                     16                     17                     18
                      A                      A                      A
 Frequencies --    284.2871               304.6664               329.6096
 Red. masses --      2.8946                 3.4875                 3.3377
 Frc consts  --      0.1378                 0.1907                 0.2136
 IR Inten    --      1.0565                 0.7800                 0.5648

                     19                     20                     21
                      A                      A                      A
 Frequencies --    354.1751               379.1751               401.4333
 Red. masses --      2.2774                 1.3973                 2.2758
 Frc consts  --      0.1683                 0.1184                 0.2161
 IR Inten    --      0.1371                58.5381                34.1743

                     22                     23                     24
                      A                      A                      A
 Frequencies --    412.7988               429.5562               476.9874
 Red. masses --      2.8475                 3.8164                 3.9579
 Frc consts  --      0.2859                 0.4149                 0.5305
 IR Inten    --      0.0174                 3.1096                 1.1322

                     25                     26                     27
                      A                      A                      A
 Frequencies --    495.5425               559.8165               575.8666
 Red. masses --      4.2379                 5.7410                 5.4584
 Frc consts  --      0.6131                 1.0601                 1.0665
 IR Inten    --     16.6177                33.3804                12.6472

                     28                     29                     30
                      A                      A                      A
 Frequencies --    631.8294               649.8683               656.1316
 Red. masses --      6.3308                 9.1893                 5.1155
 Frc consts  --      1.4891                 2.2866                 1.2975
 IR Inten    --      0.0013                 9.9764                39.1953

                     31                     32                     33
                      A                      A                      A
 Frequencies --    705.4008               718.3512               763.7584
 Red. masses --      1.9738                 3.1815                 1.1000
 Frc consts  --      0.5787                 0.9673                 0.3781
 IR Inten    --     50.4480                 8.7720                 0.9757

                     34                     35                     36
                      A                      A                      A
 Frequencies --    767.1002               779.9317               827.1634
 Red. masses --      1.0911                 2.0326                 4.3649
 Frc consts  --      0.3783                 0.7285                 1.7596
 IR Inten    --      7.0066                22.4273                 7.3262

                     37                     38                     39
                      A                      A                      A
 Frequencies --    856.5425               869.6589               892.1573
 Red. masses --      1.2509                 1.8854                 1.2563
 Frc consts  --      0.5407                 0.8402                 0.5891
 IR Inten    --      0.0000                 6.2171                 0.6018

                     40                     41                     42
                      A                      A                      A
 Frequencies --    905.7508               907.8760               909.4133
 Red. masses --      1.5056                 1.5274                 1.6611
 Frc consts  --      0.7277                 0.7418                 0.8094
 IR Inten    --      4.1241                 2.2034                 4.8030

                     43                     44                     45
                      A                      A                      A
 Frequencies --    936.4336               940.1761               989.1806
 Red. masses --      2.0685                 1.4078                 1.3763
 Frc consts  --      1.0687                 0.7332                 0.7934
 IR Inten    --     14.4155                 3.5998                 0.0153

                     46                     47                     48
                      A                      A                      A
 Frequencies --   1014.4861              1016.7789              1037.5571
 Red. masses --      6.1607                 1.3064                 2.9601
 Frc consts  --      3.7357                 0.7957                 1.8775
 IR Inten    --      4.3506                 0.0366                 0.8596

                     49                     50                     51
                      A                      A                      A
 Frequencies --   1039.1571              1051.8442              1091.8729
 Red. masses --      3.0936                 2.2430                 2.5218
 Frc consts  --      1.9683                 1.4621                 1.7713
 IR Inten    --      0.6675                 1.6843                30.2592

                     52                     53                     54
                      A                      A                      A
 Frequencies --   1107.3279              1121.4586              1127.6291
 Red. masses --      1.5206                 2.0230                 2.0410
 Frc consts  --      1.0985                 1.4990                 1.5291
 IR Inten    --      4.5941                 9.9589                14.3638

                     55                     56                     57
                      A                      A                      A
 Frequencies --   1133.6737              1153.2660              1195.4475
 Red. masses --      1.7164                 1.1014                 2.0986
 Frc consts  --      1.2997                 0.8631                 1.7671
 IR Inten    --    128.0673                 1.3375                16.8714

                     58                     59                     60
                      A                      A                      A
 Frequencies --   1200.0802              1215.3819              1216.3933
 Red. masses --      1.1106                 1.1605                 1.8322
 Frc consts  --      0.9424                 1.0100                 1.5972
 IR Inten    --      0.0829                 4.7039                32.5399

                     61                     62                     63
                      A                      A                      A
 Frequencies --   1224.5643              1271.0586              1285.6922
 Red. masses --      2.5563                 1.3007                 1.2715
 Frc consts  --      2.2586                 1.2381                 1.2383
 IR Inten    --      6.4312               151.2427                 6.4478

                     64                     65                     66
                      A                      A                      A
 Frequencies --   1303.6391              1328.2819              1330.7431
 Red. masses --      1.3530                 1.2794                 1.1021
 Frc consts  --      1.3547                 1.3300                 1.1499
 IR Inten    --     54.1938                 1.8337                 1.0428

                     67                     68                     69
                      A                      A                      A
 Frequencies --   1338.4454              1347.7529              1358.4098
 Red. masses --      1.2684                 1.1334                 2.5896
 Frc consts  --      1.3387                 1.2130                 2.8154
 IR Inten    --      3.1443                20.5816                 0.3074

                     70                     71                     72
                      A                      A                      A
 Frequencies --   1364.5183              1398.9224              1402.7483
 Red. masses --      1.7643                 1.4627                 1.8668
 Frc consts  --      1.9355                 1.6865                 2.1643
 IR Inten    --      1.9705                 5.6137               124.3368

                     73                     74                     75
                      A                      A                      A
 Frequencies --   1406.5863              1432.2420              1434.1994
 Red. masses --      1.8136                 1.2134                 1.2139
 Frc consts  --      2.1141                 1.4665                 1.4711
 IR Inten    --     67.4063                 4.5026                 5.4178

                     76                     77                     78
                      A                      A                      A
 Frequencies --   1483.4498              1491.2281              1498.2020
 Red. masses --      1.1184                 2.1949                 1.0651
 Frc consts  --      1.4500                 2.8758                 1.4086
 IR Inten    --      8.8775                 8.1525                 7.7562

                     79                     80                     81
                      A                      A                      A
 Frequencies --   1499.3511              1502.2461              1507.3016
 Red. masses --      1.0436                 1.0724                 1.0420
 Frc consts  --      1.3823                 1.4259                 1.3948
 IR Inten    --      6.1062                 4.7963                35.3990

                     82                     83                     84
                      A                      A                      A
 Frequencies --   1507.6993              1510.8873              1517.9178
 Red. masses --      1.0379                 1.0961                 1.1100
 Frc consts  --      1.3901                 1.4743                 1.5069
 IR Inten    --      7.2197                14.3054                25.2941

                     85                     86                     87
                      A                      A                      A
 Frequencies --   1530.8424              1531.8353              1619.0031
 Red. masses --      1.1431                 2.1631                 3.9784
 Frc consts  --      1.5783                 2.9906                 6.1441
 IR Inten    --     54.7341                 2.8203               400.9303

                     88                     89                     90
                      A                      A                      A
 Frequencies --   1633.0746              1649.1846              3034.8724
 Red. masses --      5.4355                 5.3782                 1.0641
 Frc consts  --      8.5408                 8.6184                 5.7743
 IR Inten    --      1.2874                 3.8439                12.0125

                     91                     92                     93
                      A                      A                      A
 Frequencies --   3042.7231              3043.3612              3045.1517
 Red. masses --      1.0588                 1.0503                 1.0456
 Frc consts  --      5.7753                 5.7314                 5.7126
 IR Inten    --      2.3995                 2.1966                14.9516

                     94                     95                     96
                      A                      A                      A
 Frequencies --   3045.9179              3076.1365              3079.5647
 Red. masses --      1.0526                 1.0626                 1.0955
 Frc consts  --      5.7538                 5.9242                 6.1212
 IR Inten    --     40.4062                 5.8187                 8.4779

                     97                     98                     99
                      A                      A                      A
 Frequencies --   3082.6495              3102.8098              3113.0765
 Red. masses --      1.1016                 1.0574                 1.1019
 Frc consts  --      6.1677                 5.9976                 6.2916
 IR Inten    --      2.8987                 3.4464                12.1487

                    100                    101                    102
                      A                      A                      A
 Frequencies --   3113.7036              3122.6324              3129.4854
 Red. masses --      1.1038                 1.0997                 1.1064
 Frc consts  --      6.3053                 6.3179                 6.3845
 IR Inten    --     21.0398                 8.8824                29.1309

                    103                    104                    105
                      A                      A                      A
 Frequencies --   3132.8848              3135.2391              3172.7798
 Red. masses --      1.1013                 1.1014                 1.1103
 Frc consts  --      6.3689                 6.3787                 6.5850
 IR Inten    --     11.5861                 9.9427                 0.1419

                    106                    107                    108
                      A                      A                      A
 Frequencies --   3177.6947              3178.0410              3196.3630
 Red. masses --      1.0898                 1.0905                 1.0896
 Frc consts  --      6.4836                 6.4893                 6.5587
 IR Inten    --      5.9125                 4.9775                 1.0669

                    109                    110                    111
                      A                      A                      A
 Frequencies --   3206.8003              3216.5274              3763.7831
 Red. masses --      1.0939                 1.0983                 1.0656
 Frc consts  --      6.6281                 6.6947                 8.8936
 IR Inten    --      9.1916                 5.7798               132.8872

 - Thermochemistry -
 -------------------
 Temperature   298.150 Kelvin.  Pressure   1.00000 Atm.
 Atom     1 has atomic number 16 and mass  31.97207

 Molecular mass:   252.14221 amu.
 Principal axes and moments of inertia in atomic units:
                           1         2         3
     Eigenvalues --  2473.14630********************
           X            1.00000  -0.00248   0.00167
           Y            0.00249   0.99999  -0.00459
           Z           -0.00166   0.00460   0.99999
 This molecule is an asymmetric top.
 Rotational symmetry number  1.
 Warning -- assumption of classical behavior for rotation
           may cause significant error
 Rotational temperatures (Kelvin)      0.03502     0.00833     0.00725
 Rotational constants (GHZ):           0.72973     0.17351     0.15113
 Zero-point vibrational energy     892065.7 (Joules/Mol)
                                  213.20882 (Kcal/Mol)
 Warning -- explicit consideration of  27 degrees of freedom as
           vibrations may cause significant error
 Vibrational temperatures:     29.06    36.94    54.67    74.77    99.56
          (Kelvin)            104.57   116.13   129.95   152.37   182.94
                              225.03   294.10   348.07   353.33   368.92
                              409.03   438.35   474.23   509.58   545.55
                              577.57   593.93   618.04   686.28   712.98
                              805.45   828.54   909.06   935.02   944.03
                             1014.91  1033.55  1098.88  1103.69  1122.15
                             1190.10  1232.37  1251.25  1283.62  1303.17
                             1306.23  1308.44  1347.32  1352.70  1423.21
                             1459.62  1462.92  1492.81  1495.12  1513.37
                             1570.96  1593.20  1613.53  1622.41  1631.10
                             1659.29  1719.98  1726.65  1748.66  1750.12
                             1761.87  1828.77  1849.82  1875.65  1911.10
                             1914.64  1925.72  1939.12  1954.45  1963.24
                             2012.74  2018.24  2023.76  2060.68  2063.49
                             2134.35  2145.54  2155.58  2157.23  2161.40
                             2168.67  2169.24  2173.83  2183.95  2202.54
                             2203.97  2329.38  2349.63  2372.81  4366.50
                             4377.80  4378.72  4381.29  4382.40  4425.87
                             4430.81  4435.25  4464.25  4479.02  4479.92
                             4492.77  4502.63  4507.52  4510.91  4564.92
                             4571.99  4572.49  4598.85  4613.87  4627.87
                             5415.24

 Zero-point correction=                           0.339770 (Hartree/Particle)
 Thermal correction to Energy=                    0.358885
 Thermal correction to Enthalpy=                  0.359829
 Thermal correction to Gibbs Free Energy=         0.289434
 Sum of electronic and zero-point Energies=          -1074.438999
 Sum of electronic and thermal Energies=             -1074.419884
 Sum of electronic and thermal Enthalpies=           -1074.418940
 Sum of electronic and thermal Free Energies=        -1074.489336

                     E (Thermal)             CV                S
                      KCal/Mol        Cal/Mol-Kelvin    Cal/Mol-Kelvin
 Total                  225.204             70.252            148.159
 Electronic               0.000              0.000              0.000
 Translational            0.889              2.981             42.475
 Rotational               0.889              2.981             34.084
 Vibrational            223.426             64.290             71.600
 Vibration     1          0.593              1.986              6.615
 Vibration     2          0.593              1.985              6.139
 Vibration     3          0.594              1.982              5.361
 Vibration     4          0.596              1.977              4.741
 Vibration     5          0.598              1.969              4.176
 Vibration     6          0.599              1.967              4.079
 Vibration     7          0.600              1.962              3.873
 Vibration     8          0.602              1.956              3.653
 Vibration     9          0.605              1.945              3.343
 Vibration    10          0.611              1.926              2.989
 Vibration    11          0.620              1.895              2.593
 Vibration    12          0.640              1.834              2.093
 Vibration    13          0.658              1.776              1.789
 Vibration    14          0.660              1.770              1.762
 Vibration    15          0.666              1.752              1.686
 Vibration    16          0.683              1.703              1.508
 Vibration    17          0.696              1.665              1.391
 Vibration    18          0.712              1.616              1.262
 Vibration    19          0.730              1.567              1.148
 Vibration    20          0.749              1.515              1.042
 Vibration    21          0.767              1.467              0.957
 Vibration    22          0.777              1.442              0.917
 Vibration    23          0.791              1.406              0.860
 Vibration    24          0.834              1.301              0.718
 Vibration    25          0.851              1.260              0.669
 Vibration    26          0.915              1.118              0.524
 Vibration    27          0.932              1.083              0.493

 Optimization completed.
    -- Stationary point found.
 Normal termination of Gaussian 16 at Mon Jul 30 20:52:39 2018.
