 Gaussian 16, Revision A.03,
 Gaussian 16:  ES64L-G16RevA.03 25-Dec-2016

 ----------------------------------------------------------------------
 # opt=maxcycles=150 freq b3lyp/6-31++g(d,p) empiricaldispersion=GD3 in
 t=ultrafine scf=xqc pop=(mk,dipole)
 ----------------------------------------------------------------------

 ------------------------------
 Original File: SULFENTRAZONE_1
 ------------------------------
 Symbolic Z-matrix:
 Charge =  1 Multiplicity = 1

 SCF Done:  E(RB3LYP) =  -2388.48167251     A.U. after   18 cycles
 SCF Done:  E(RB3LYP) =  -2388.50397257     A.U. after   14 cycles
 SCF Done:  E(RB3LYP) =  -2388.50908215     A.U. after   15 cycles
 SCF Done:  E(RB3LYP) =  -2388.51297453     A.U. after   14 cycles
 SCF Done:  E(RB3LYP) =  -2388.51346559     A.U. after   14 cycles
 SCF Done:  E(RB3LYP) =  -2388.51418708     A.U. after   14 cycles
 SCF Done:  E(RB3LYP) =  -2388.51489366     A.U. after   14 cycles
 SCF Done:  E(RB3LYP) =  -2388.51541506     A.U. after   13 cycles
 SCF Done:  E(RB3LYP) =  -2388.51569473     A.U. after   13 cycles
 SCF Done:  E(RB3LYP) =  -2388.51589488     A.U. after   14 cycles
 SCF Done:  E(RB3LYP) =  -2388.51715248     A.U. after   12 cycles
 SCF Done:  E(RB3LYP) =  -2388.51719854     A.U. after   14 cycles
 SCF Done:  E(RB3LYP) =  -2388.51721049     A.U. after   12 cycles
 SCF Done:  E(RB3LYP) =  -2388.51721617     A.U. after   12 cycles
 SCF Done:  E(RB3LYP) =  -2388.51722024     A.U. after   12 cycles
 SCF Done:  E(RB3LYP) =  -2388.51722122     A.U. after   12 cycles
 SCF Done:  E(RB3LYP) =  -2388.51722157     A.U. after   12 cycles
 SCF Done:  E(RB3LYP) =  -2388.51722158     A.U. after   11 cycles
 SCF Done:  E(RB3LYP) =  -2388.51722157     A.U. after    9 cycles
 Optimization completed.
    -- Stationary point found.
 Normal termination of Gaussian 16 at Mon Jul 30 22:26:42 2018.

 ----------------------------------------------------------------------
 #N Geom=AllCheck Guess=TCheck SCRF=Check GenChk RB3LYP/6-31++G(d,p) Fr
 eq
 ----------------------------------------------------------------------

 Structure from the checkpoint file:  "/scratch/cieritan/chk/SULFENTRAZONE_1.chk"
 ------------------------------
 Original File: SULFENTRAZONE_1
 ------------------------------
 Charge =  1 Multiplicity = 1

                         Standard orientation:
 ---------------------------------------------------------------------
 Center     Atomic      Atomic             Coordinates (Angstroms)
 Number     Number       Type             X           Y           Z
 ---------------------------------------------------------------------
      1         17           0       -1.568793    2.745860   -0.370175
      2         17           0        3.838268    2.605009   -0.141351
      3         16           0        3.780229   -1.819976   -0.157142
      4          9           0       -5.508872   -0.124828   -0.982419
      5          9           0       -5.193895   -2.181146   -0.292900
      6          8           0       -1.811154   -0.851875   -1.813462
      7          8           0        2.566735   -2.622475    0.017909
      8          8           0        4.319445   -1.554027   -1.489417
      9          7           0       -1.379512   -0.170864    0.395701
     10          7           0       -3.466829   -0.698976   -0.135026
     11          7           0       -2.253905    0.086049    1.448219
     12          7           0        3.481807   -0.298016    0.656037
     13          6           0       -0.126128    0.513492    0.299949
     14          6           0       -2.143746   -0.602193   -0.689583
     15          6           0       -3.487567   -0.256562    1.142711
     16          6           0        2.293859    0.407332    0.396813
     17          6           0        1.038863   -0.205047    0.542008
     18          6           0       -0.089984    1.869460   -0.060773
     19          6           0        2.315161    1.774894    0.038332
     20          6           0        1.142061    2.501989   -0.174510
     21          6           0       -4.606589   -1.134945   -0.922747
     22          6           0       -4.662255   -0.181342    2.043788
     23          6           0        5.087642   -2.456796    0.897997
     24          1           0        0.979752   -1.251782    0.809521
     25          1           0        4.304178    0.291687    0.531631
     26          1           0        1.197208    3.547897   -0.451331
     27          1           0       -4.264190   -1.415109   -1.921152
     28          1           0       -4.380554    0.240282    3.010065
     29          1           0       -5.080576   -1.182373    2.187637
     30          1           0       -5.435119    0.441754    1.583857
     31          1           0        5.938693   -1.774707    0.858819
     32          1           0        4.697412   -2.565897    1.909520
     33          1           0        5.362478   -3.424881    0.473758
     34          1           0       -1.898151    0.419733    2.337090
 ---------------------------------------------------------------------

 SCF Done:  E(RB3LYP) =  -2388.51722157     A.U. after    2 cycles

 The electronic state is 1-A.
 Alpha  occ. eigenvalues -- -101.69875-101.68435 -89.23204 -24.88924 -24.88892
 Alpha  occ. eigenvalues --  -19.31037 -19.26551 -19.26215 -14.64157 -14.60951
 Alpha  occ. eigenvalues --  -14.60007 -14.50089 -10.56276 -10.51306 -10.51064
 Alpha  occ. eigenvalues --  -10.40505 -10.40099 -10.40019 -10.39217 -10.38475
 Alpha  occ. eigenvalues --  -10.35154 -10.35016 -10.33523  -9.61299  -9.59881
 Alpha  occ. eigenvalues --   -8.25728  -7.37736  -7.36719  -7.36706  -7.36315
 Alpha  occ. eigenvalues --   -7.35300  -7.35284  -6.22280  -6.22121  -6.21986
 Alpha  occ. eigenvalues --   -1.43536  -1.37219  -1.30812  -1.22878  -1.22506
 Alpha  occ. eigenvalues --   -1.15773  -1.12013  -1.08702  -1.07476  -1.03321
 Alpha  occ. eigenvalues --   -1.00381  -0.97328  -0.95074  -0.93302  -0.89938
 Alpha  occ. eigenvalues --   -0.88650  -0.86491  -0.83245  -0.82785  -0.78694
 Alpha  occ. eigenvalues --   -0.77729  -0.75530  -0.73977  -0.73424  -0.72932
 Alpha  occ. eigenvalues --   -0.71379  -0.70168  -0.68517  -0.65992  -0.64415
 Alpha  occ. eigenvalues --   -0.63213  -0.62574  -0.62006  -0.60978  -0.60368
 Alpha  occ. eigenvalues --   -0.59848  -0.59462  -0.59407  -0.59064  -0.58463
 Alpha  occ. eigenvalues --   -0.57647  -0.57266  -0.56440  -0.55643  -0.54873
 Alpha  occ. eigenvalues --   -0.54220  -0.54045  -0.53894  -0.53225  -0.51291
 Alpha  occ. eigenvalues --   -0.50413  -0.47318  -0.46453  -0.46253  -0.46079
 Alpha  occ. eigenvalues --   -0.44971  -0.44497  -0.43299  -0.42973  -0.42482
 Alpha  occ. eigenvalues --   -0.41503  -0.39782  -0.35963
 Alpha virt. eigenvalues --   -0.22123  -0.17876  -0.16422  -0.14996  -0.14659
 Alpha virt. eigenvalues --   -0.12876  -0.12196  -0.10690  -0.10029  -0.09300
 Alpha virt. eigenvalues --   -0.08783  -0.08405  -0.08059  -0.07433  -0.07311

 Mulliken charges:
               1
     1  Cl   0.337292
     2  Cl   0.274727
     3  S    0.982698
     4  F   -0.254262
     5  F   -0.240709
     6  O   -0.342725
     7  O   -0.551059
     8  O   -0.433579
     9  N    0.466383
    10  N   -0.536359
    11  N   -0.081276
    12  N   -0.475716
    13  C   -2.599589
    14  C    0.578971
    15  C    0.500503
    16  C   -1.228410
    17  C   -0.029598
    18  C    0.478914
    19  C    0.835740
    20  C    0.874094
    21  C    0.761383
    22  C   -0.602900
    23  C   -0.417247
    24  H    0.222538
    25  H    0.324639
    26  H    0.170610
    27  H    0.214134
    28  H    0.170016
    29  H    0.255077
    30  H    0.245864
    31  H    0.220859
    32  H    0.231286
    33  H    0.236896
    34  H    0.410806
 Sum of Mulliken charges =   1.00000

 Dipole moment (field-independent basis, Debye):
    X=             -6.1021    Y=              0.8412    Z=              8.9963  Tot=             10.9031
 Quadrupole moment (field-independent basis, Debye-Ang):
   XX=            -65.8090   YY=           -139.6539   ZZ=           -139.2855
   XY=             -1.7202   XZ=             -2.6599   YZ=             -5.6071

  Exact polarizability: 296.135  -4.312 202.058  -4.707  -5.289 156.524
 Approx polarizability: 399.895   1.873 309.596  -6.455 -12.711 260.240

 ESP charges:
               1
     1  Cl   0.001464
     2  Cl   0.028711
     3  S    1.152333
     4  F   -0.190955
     5  F   -0.192063
     6  O   -0.432751
     7  O   -0.524928
     8  O   -0.497752
     9  N    0.015597
    10  N   -0.360434
    11  N   -0.568036
    12  N   -0.787553
    13  C    0.330209
    14  C    0.587535
    15  C    0.635974
    16  C    0.683438
    17  C   -0.545351
    18  C   -0.232533
    19  C   -0.269874
    20  C    0.110411
    21  C    0.483199
    22  C   -0.535068
    23  C   -0.579334
    24  H    0.272274
    25  H    0.351956
    26  H    0.147818
    27  H    0.146382
    28  H    0.195480
    29  H    0.225727
    30  H    0.216918
    31  H    0.220457
    32  H    0.218807
    33  H    0.229475
    34  H    0.462467
 Sum of ESP charges =   1.00000

                      1                      2                      3
                      A                      A                      A
 Frequencies --     12.1231                18.5533                24.3240
 Red. masses --      7.1872                10.5339                 7.1489
 Frc consts  --      0.0006                 0.0021                 0.0025
 IR Inten    --      4.9018                 1.2731                 1.2466

                      4                      5                      6
                      A                      A                      A
 Frequencies --     33.6577                44.6871                51.3286
 Red. masses --     11.5410                 9.1151                 5.3833
 Frc consts  --      0.0077                 0.0107                 0.0084
 IR Inten    --      0.5015                 0.8935                 9.1327

                      7                      8                      9
                      A                      A                      A
 Frequencies --     69.9823                97.6371               113.0492
 Red. masses --     10.3337                12.6587                 2.4716
 Frc consts  --      0.0298                 0.0711                 0.0186
 IR Inten    --      0.3383                 1.0832                 3.7532

                     10                     11                     12
                      A                      A                      A
 Frequencies --    122.6429               163.0734               166.3336
 Red. masses --      1.7666                 5.7355                 5.9045
 Frc consts  --      0.0157                 0.0899                 0.0962
 IR Inten    --      2.4450                 1.2114                 1.0499

                     13                     14                     15
                      A                      A                      A
 Frequencies --    183.2529               186.2585               189.3781
 Red. masses --      2.8826                 4.7762                 1.6281
 Frc consts  --      0.0570                 0.0976                 0.0344
 IR Inten    --      2.0632                11.6173                 1.2861

                     16                     17                     18
                      A                      A                      A
 Frequencies --    204.3331               218.1654               238.6445
 Red. masses --      5.2680                 5.6038                 6.4909
 Frc consts  --      0.1296                 0.1571                 0.2178
 IR Inten    --      0.4938                 1.3853                 0.9221

                     19                     20                     21
                      A                      A                      A
 Frequencies --    257.4801               267.9537               288.0353
 Red. masses --      5.9617                 7.4631                 6.4122
 Frc consts  --      0.2329                 0.3157                 0.3134
 IR Inten    --      2.0565                 0.9535                 2.3603

                     22                     23                     24
                      A                      A                      A
 Frequencies --    311.4477               353.4155               360.1763
 Red. masses --      4.4894                 7.5235                 5.1696
 Frc consts  --      0.2566                 0.5537                 0.3951
 IR Inten    --      1.5890                 2.9717                12.6838

                     25                     26                     27
                      A                      A                      A
 Frequencies --    380.5778               405.5882               421.0613
 Red. masses --      5.3939                 9.2294                 5.7311
 Frc consts  --      0.4603                 0.8945                 0.5987
 IR Inten    --      6.6575                16.6683                32.8179

                     28                     29                     30
                      A                      A                      A
 Frequencies --    455.5700               465.5486               477.5303
 Red. masses --      4.2329                 5.6764                 2.4400
 Frc consts  --      0.5176                 0.7249                 0.3278
 IR Inten    --      4.8583                16.2962                33.7724

                     31                     32                     33
                      A                      A                      A
 Frequencies --    486.4649               509.6494               515.4839
 Red. masses --      2.1688                 5.6555                 5.9704
 Frc consts  --      0.3024                 0.8655                 0.9347
 IR Inten    --     46.1271                17.8132                11.1872

                     34                     35                     36
                      A                      A                      A
 Frequencies --    553.4573               565.0616               589.5121
 Red. masses --      6.6757                 9.5588                 5.3451
 Frc consts  --      1.2048                 1.7982                 1.0944
 IR Inten    --     44.6859                20.2306                 4.5905

                     37                     38                     39
                      A                      A                      A
 Frequencies --    606.0916               639.9346               657.4248
 Red. masses --      3.4916                 4.1653                 6.5524
 Frc consts  --      0.7557                 1.0050                 1.6686
 IR Inten    --     59.3273                22.2288                 7.0787

                     40                     41                     42
                      A                      A                      A
 Frequencies --    678.2473               706.8052               729.6110
 Red. masses --      7.5814                 4.3799                 8.8503
 Frc consts  --      2.0548                 1.2892                 2.7758
 IR Inten    --     21.5209                 6.1558                16.0309

                     43                     44                     45
                      A                      A                      A
 Frequencies --    733.7811               751.6813               784.1011
 Red. masses --      6.9621                 7.0654                 7.9614
 Frc consts  --      2.2086                 2.3521                 2.8839
 IR Inten    --     26.3773                 9.0438               210.2928

                     46                     47                     48
                      A                      A                      A
 Frequencies --    811.6538               827.7467               837.4348
 Red. masses --      5.4450                 1.8279                 5.7995
 Frc consts  --      2.1134                 0.7379                 2.3963
 IR Inten    --     62.0269                80.1092               156.7313

                     49                     50                     51
                      A                      A                      A
 Frequencies --    885.7717               915.1892               967.9058
 Red. masses --      1.3990                 1.4327                 4.3742
 Frc consts  --      0.6467                 0.7070                 2.4144
 IR Inten    --      6.1294                17.5552                43.7775

                     52                     53                     54
                      A                      A                      A
 Frequencies --    984.5796               989.4515              1018.6364
 Red. masses --      1.3351                 1.5518                 1.6961
 Frc consts  --      0.7625                 0.8951                 1.0369
 IR Inten    --      0.7683                42.4142                24.6720

                     55                     56                     57
                      A                      A                      A
 Frequencies --   1055.9922              1074.1742              1095.1151
 Red. masses --      1.5795                 5.0099                 7.6671
 Frc consts  --      1.0377                 3.4059                 5.4175
 IR Inten    --      1.6991                33.5715                60.0549

                     58                     59                     60
                      A                      A                      A
 Frequencies --   1115.8942              1123.7895              1126.6117
 Red. masses --      5.7750                 3.4194                 9.8347
 Frc consts  --      4.2369                 2.5443                 7.3546
 IR Inten    --    188.9464               111.4040               126.9930

                     61                     62                     63
                      A                      A                      A
 Frequencies --   1138.3602              1195.2243              1231.7738
 Red. masses --      3.6356                 6.4298                 2.6030
 Frc consts  --      2.7757                 5.4119                 2.3270
 IR Inten    --     46.7081                88.4633                26.2696

                     64                     65                     66
                      A                      A                      A
 Frequencies --   1261.0846              1274.8903              1288.8977
 Red. masses --      4.7141                 1.6586                 2.3721
 Frc consts  --      4.4171                 1.5883                 2.3217
 IR Inten    --    157.4407                41.3767                27.2368

                     67                     68                     69
                      A                      A                      A
 Frequencies --   1311.4776              1328.8780              1359.8313
 Red. masses --      4.0129                 6.4258                 1.2177
 Frc consts  --      4.0666                 6.6857                 1.3267
 IR Inten    --    126.3415                89.4084                 9.5802

                     70                     71                     72
                      A                      A                      A
 Frequencies --   1373.4253              1375.8630              1403.7442
 Red. masses --      1.4126                 1.6524                 2.1010
 Frc consts  --      1.5699                 1.8429                 2.4392
 IR Inten    --     38.3044                25.5074               172.3443

                     73                     74                     75
                      A                      A                      A
 Frequencies --   1421.0277              1426.0498              1445.2058
 Red. masses --      1.4392                 2.0356                 1.4791
 Frc consts  --      1.7123                 2.4390                 1.8202
 IR Inten    --     39.5063                56.1197                 8.1235

                     76                     77                     78
                      A                      A                      A
 Frequencies --   1452.4015              1459.7983              1463.1972
 Red. masses --      1.0513                 1.0447                 1.2394
 Frc consts  --      1.3067                 1.3117                 1.5634
 IR Inten    --     11.5504                12.9489                 5.2731

                     79                     80                     81
                      A                      A                      A
 Frequencies --   1476.3682              1513.7799              1559.6193
 Red. masses --      1.2302                 2.8694                 3.5063
 Frc consts  --      1.5798                 3.8740                 5.0250
 IR Inten    --     90.9508               249.0967               137.3730

                     82                     83                     84
                      A                      A                      A
 Frequencies --   1593.8874              1630.8639              1656.5687
 Red. masses --      5.9665                 6.5427                 5.4888
 Frc consts  --      8.9307                10.2528                 8.8745
 IR Inten    --     36.2726                44.9341               132.1008

                     85                     86                     87
                      A                      A                      A
 Frequencies --   1896.5535              3062.8910              3073.5184
 Red. masses --     12.8132                 1.0353                 1.0288
 Frc consts  --     27.1543                 5.7223                 5.7258
 IR Inten    --    412.0257                12.3887                 2.8488

                     88                     89                     90
                      A                      A                      A
 Frequencies --   3136.7974              3161.2981              3165.0700
 Red. masses --      1.1019                 1.0926                 1.1054
 Frc consts  --      6.3880                 6.4333                 6.5242
 IR Inten    --      5.8979                 0.3756                 2.7705

                     91                     92                     93
                      A                      A                      A
 Frequencies --   3177.5860              3197.3386              3233.2957
 Red. masses --      1.1070                 1.1094                 1.0933
 Frc consts  --      6.5857                 6.6820                 6.7343
 IR Inten    --      1.6500                 0.7685                 6.8936

                     94                     95                     96
                      A                      A                      A
 Frequencies --   3246.9937              3510.4092              3617.4570
 Red. masses --      1.0929                 1.0746                 1.0852
 Frc consts  --      6.7886                 7.8020                 8.3673
 IR Inten    --     15.2959                51.5189               187.9978

 - Thermochemistry -
 -------------------
 Temperature   298.150 Kelvin.  Pressure   1.00000 Atm.
 Atom     1 has atomic number 17 and mass  34.96885

 Molecular mass:   386.98970 amu.
 Principal axes and moments of inertia in atomic units:
                           1         2         3
     Eigenvalues --  5145.01590********************
           X            0.99989  -0.01432  -0.00390
           Y            0.01429   0.99986  -0.00847
           Z            0.00402   0.00841   0.99996
 This molecule is an asymmetric top.
 Rotational symmetry number  1.
 Warning -- assumption of classical behavior for rotation
           may cause significant error
 Rotational temperatures (Kelvin)      0.01683     0.00515     0.00434
 Rotational constants (GHZ):           0.35077     0.10731     0.09045
 Zero-point vibrational energy     610337.7 (Joules/Mol)
                                  145.87420 (Kcal/Mol)
 Warning -- explicit consideration of  37 degrees of freedom as
           vibrations may cause significant error
 Vibrational temperatures:     17.44    26.69    35.00    48.43    64.29
          (Kelvin)             73.85   100.69   140.48   162.65   176.46
                              234.63   239.32   263.66   267.98   272.47
                              293.99   313.89   343.36   370.46   385.53
                              414.42   448.10   508.49   518.21   547.57
                              583.55   605.81   655.46   669.82   687.06
                              699.91   733.27   741.67   796.30   813.00
                              848.18   872.03   920.72   945.89   975.85
                             1016.94  1049.75  1055.75  1081.50  1128.15
                             1167.79  1190.94  1204.88  1274.43  1316.75
                             1392.60  1416.59  1423.60  1465.59  1519.34
                             1545.50  1575.63  1605.52  1616.88  1620.94
                             1637.85  1719.66  1772.25  1814.42  1834.28
                             1854.44  1886.92  1911.96  1956.49  1976.05
                             1979.56  2019.67  2044.54  2051.77  2079.33
                             2089.68  2100.32  2105.21  2124.16  2177.99
                             2243.94  2293.25  2346.45  2383.43  2728.72
                             4406.82  4422.11  4513.15  4548.40  4553.83
                             4571.84  4600.26  4651.99  4671.70  5050.70
                             5204.71

 Zero-point correction=                           0.232465 (Hartree/Particle)
 Thermal correction to Energy=                    0.255289
 Thermal correction to Enthalpy=                  0.256233
 Thermal correction to Gibbs Free Energy=         0.175875
 Sum of electronic and zero-point Energies=          -2388.284756
 Sum of electronic and thermal Energies=             -2388.261933
 Sum of electronic and thermal Enthalpies=           -2388.260989
 Sum of electronic and thermal Free Energies=        -2388.341347

                     E (Thermal)             CV                S
                      KCal/Mol        Cal/Mol-Kelvin    Cal/Mol-Kelvin
 Total                  160.196             82.133            169.128
 Electronic               0.000              0.000              0.000
 Translational            0.889              2.981             43.752
 Rotational               0.889              2.981             35.800
 Vibrational            158.419             76.172             89.576
 Vibration     1          0.593              1.987              7.629
 Vibration     2          0.593              1.986              6.783
 Vibration     3          0.593              1.985              6.246
 Vibration     4          0.594              1.983              5.601
 Vibration     5          0.595              1.980              5.040
 Vibration     6          0.596              1.977              4.766
 Vibration     7          0.598              1.968              4.154
 Vibration     8          0.603              1.951              3.501
 Vibration     9          0.607              1.939              3.216
 Vibration    10          0.610              1.930              3.058
 Vibration    11          0.623              1.888              2.514
 Vibration    12          0.624              1.884              2.477
 Vibration    13          0.631              1.863              2.295
 Vibration    14          0.632              1.859              2.265
 Vibration    15          0.633              1.854              2.234
 Vibration    16          0.640              1.834              2.094
 Vibration    17          0.646              1.813              1.974
 Vibration    18          0.657              1.781              1.813
 Vibration    19          0.667              1.750              1.679
 Vibration    20          0.673              1.732              1.609
 Vibration    21          0.685              1.696              1.485
 Vibration    22          0.700              1.652              1.355
 Vibration    23          0.730              1.568              1.151
 Vibration    24          0.735              1.554              1.121
 Vibration    25          0.750              1.512              1.037
 Vibration    26          0.771              1.458              0.942
 Vibration    27          0.784              1.424              0.888
 Vibration    28          0.814              1.349              0.779
 Vibration    29          0.823              1.326              0.750
 Vibration    30          0.834              1.300              0.717
 Vibration    31          0.842              1.280              0.693
 Vibration    32          0.865              1.229              0.634
 Vibration    33          0.871              1.216              0.621
 Vibration    34          0.909              1.132              0.537
 Vibration    35          0.921              1.107              0.514
 Vibration    36          0.947              1.054              0.468
 Vibration    37          0.965              1.019              0.439

 Optimization completed.
    -- Stationary point found.
 Normal termination of Gaussian 16 at Mon Jul 30 23:15:44 2018.
