 Gaussian 16, Revision A.03,
 Gaussian 16:  ES64L-G16RevA.03 25-Dec-2016

 ----------------------------------------------------------------------
 # opt=maxcycles=150 freq b3lyp/6-31++g(d,p) empiricaldispersion=GD3 in
 t=ultrafine scf=xqc pop=(mk,dipole)
 ----------------------------------------------------------------------

 ----------------------------
 Original File: THIACLOPRID_4
 ----------------------------
 Symbolic Z-matrix:
 Charge =  1 Multiplicity = 1

 SCF Done:  E(RB3LYP) =  -1464.24373843     A.U. after   16 cycles
 SCF Done:  E(RB3LYP) =  -1464.25323668     A.U. after   14 cycles
 SCF Done:  E(RB3LYP) =  -1464.25355495     A.U. after   14 cycles
 SCF Done:  E(RB3LYP) =  -1464.25436878     A.U. after   14 cycles
 SCF Done:  E(RB3LYP) =  -1464.25453734     A.U. after   13 cycles
 SCF Done:  E(RB3LYP) =  -1464.25488245     A.U. after   13 cycles
 SCF Done:  E(RB3LYP) =  -1464.25292821     A.U. after   14 cycles
 SCF Done:  E(RB3LYP) =  -1464.25535690     A.U. after   13 cycles
 SCF Done:  E(RB3LYP) =  -1464.25559134     A.U. after   13 cycles
 SCF Done:  E(RB3LYP) =  -1464.25586396     A.U. after   12 cycles
 SCF Done:  E(RB3LYP) =  -1464.25596196     A.U. after   12 cycles
 SCF Done:  E(RB3LYP) =  -1464.25598578     A.U. after   11 cycles
 SCF Done:  E(RB3LYP) =  -1464.25598808     A.U. after   11 cycles
 SCF Done:  E(RB3LYP) =  -1464.25598821     A.U. after    9 cycles
 Optimization completed.
    -- Stationary point found.
 Normal termination of Gaussian 16 at Mon Jul 30 20:45:45 2018.

 ----------------------------------------------------------------------
 #N Geom=AllCheck Guess=TCheck SCRF=Check GenChk RB3LYP/6-31++G(d,p) Fr
 eq
 ----------------------------------------------------------------------

 Structure from the checkpoint file:  "/scratch/cieritan/chk/THIACLOPRID_4.chk"
 ----------------------------
 Original File: THIACLOPRID_4
 ----------------------------
 Charge =  1 Multiplicity = 1

                         Standard orientation:
 ---------------------------------------------------------------------
 Center     Atomic      Atomic             Coordinates (Angstroms)
 Number     Number       Type             X           Y           Z
 ---------------------------------------------------------------------
      1         17           0        4.822333    0.476994   -0.673162
      2         16           0       -3.412848    0.544701   -0.764876
      3          7           0       -1.680849   -1.009699    0.416047
      4          7           0       -1.129368    1.272253    0.497344
      5          7           0        2.920507    0.112405    1.093196
      6          7           0       -1.720823    3.692316    0.146030
      7          6           0       -2.607615   -1.969810   -0.229551
      8          6           0       -0.506686   -1.481872    1.200833
      9          6           0       -3.915143   -1.214302   -0.472042
     10          6           0       -1.949834    0.254706    0.129825
     11          6           0        0.823818   -1.004469    0.663476
     12          6           0        1.218320   -1.234337   -0.667208
     13          6           0        1.723042   -0.330774    1.497314
     14          6           0        2.456424   -0.784487   -1.097746
     15          6           0        3.269057   -0.110238   -0.164570
     16          6           0       -1.448349    2.573960    0.307114
     17          1           0       -2.759154   -2.825148    0.431862
     18          1           0       -2.155529   -2.316534   -1.166293
     19          1           0       -0.564096   -2.572653    1.187967
     20          1           0       -0.644279   -1.161576    2.239612
     21          1           0       -4.446824   -1.577909   -1.351877
     22          1           0       -4.577534   -1.236456    0.395936
     23          1           0        0.566722   -1.762814   -1.358406
     24          1           0        1.479426   -0.141104    2.542505
     25          1           0        2.801091   -0.943201   -2.112614
     26          1           0       -0.178406    1.052099    0.800084
 ---------------------------------------------------------------------

 SCF Done:  E(RB3LYP) =  -1464.25598821     A.U. after    1 cycles

 The electronic state is 1-A.
 Alpha  occ. eigenvalues -- -101.66815 -89.09997 -14.61572 -14.59939 -14.50556
 Alpha  occ. eigenvalues --  -14.48675 -10.52548 -10.42913 -10.42457 -10.42396
 Alpha  occ. eigenvalues --  -10.42374 -10.41211 -10.38559 -10.37332 -10.36945
 Alpha  occ. eigenvalues --  -10.35582  -9.58340  -8.15921  -7.34771  -7.33793
 Alpha  occ. eigenvalues --   -7.33687  -6.12448  -6.12023  -6.11435  -1.22743
 Alpha  occ. eigenvalues --   -1.15966  -1.11044  -1.06149  -1.02281  -0.98746
 Alpha  occ. eigenvalues --   -0.97057  -0.95554  -0.92503  -0.87268  -0.84602
 Alpha  occ. eigenvalues --   -0.82474  -0.79468  -0.77840  -0.77022  -0.71744
 Alpha  occ. eigenvalues --   -0.69696  -0.67259  -0.66024  -0.65418  -0.63518
 Alpha  occ. eigenvalues --   -0.61832  -0.61420  -0.59901  -0.58958  -0.58090
 Alpha  occ. eigenvalues --   -0.57191  -0.56174  -0.55798  -0.53840  -0.53009
 Alpha  occ. eigenvalues --   -0.52133  -0.51971  -0.50051  -0.47005  -0.44999
 Alpha  occ. eigenvalues --   -0.44249  -0.43602  -0.42961  -0.41032  -0.39426
 Alpha virt. eigenvalues --   -0.22586  -0.19371  -0.18821  -0.17947  -0.14928
 Alpha virt. eigenvalues --   -0.13801  -0.13350  -0.12315  -0.11567  -0.10904
 Alpha virt. eigenvalues --   -0.10115  -0.09379  -0.08733  -0.08538  -0.08155

 Mulliken charges:
               1
     1  Cl   0.245879
     2  S    0.563913
     3  N    0.078705
     4  N   -0.208556
     5  N    0.050879
     6  N   -0.274928
     7  C   -0.071458
     8  C   -0.439672
     9  C   -0.586133
    10  C   -0.713784
    11  C    0.453317
    12  C    0.074496
    13  C   -0.713774
    14  C    0.016247
    15  C   -0.301516
    16  C    0.477153
    17  H    0.199167
    18  H    0.205968
    19  H    0.195767
    20  H    0.236866
    21  H    0.235389
    22  H    0.258252
    23  H    0.136219
    24  H    0.144848
    25  H    0.191632
    26  H    0.545125
 Sum of Mulliken charges =   1.00000

 Dipole moment (field-independent basis, Debye):
    X=             -8.2168    Y=             -7.4662    Z=             -0.1407  Tot=             11.1031
 Quadrupole moment (field-independent basis, Debye-Ang):
   XX=            -73.0021   YY=           -102.1410   ZZ=            -95.3534
   XY=             14.0348   XZ=             -2.0553   YZ=              1.0958

  Exact polarizability: 209.992  16.183 163.449  -1.273   1.428 129.989
 Approx polarizability: 286.117  28.567 269.503   0.850   0.290 225.044

 ESP charges:
               1
     1  Cl  -0.048365
     2  S    0.113726
     3  N    0.373395
     4  N   -0.167999
     5  N   -0.613953
     6  N   -0.355610
     7  C   -0.320811
     8  C   -0.576126
     9  C    0.001022
    10  C   -0.084682
    11  C   -0.090632
    12  C    0.082996
    13  C    0.506571
    14  C   -0.388770
    15  C    0.493442
    16  C    0.438272
    17  H    0.184085
    18  H    0.147719
    19  H    0.248601
    20  H    0.218926
    21  H    0.154144
    22  H    0.109234
    23  H    0.122636
    24  H    0.018043
    25  H    0.192936
    26  H    0.241199
 Sum of ESP charges =   1.00000

                      1                      2                      3
                      A                      A                      A
 Frequencies --     24.1573                34.5112                42.9488
 Red. masses --      6.6776                 8.7005                 5.1332
 Frc consts  --      0.0023                 0.0061                 0.0056
 IR Inten    --      0.4259                 1.1873                 2.5263

                      4                      5                      6
                      A                      A                      A
 Frequencies --     87.9939               100.1839               116.0592
 Red. masses --      6.3791                10.2148                 5.5893
 Frc consts  --      0.0291                 0.0604                 0.0444
 IR Inten    --      0.3763                 2.8628                 2.0620

                      7                      8                      9
                      A                      A                      A
 Frequencies --    148.7912               170.0055               211.6327
 Red. masses --      6.3542                 2.3651                 7.2329
 Frc consts  --      0.0829                 0.0403                 0.1909
 IR Inten    --      3.6832                 2.2917                 1.8650

                     10                     11                     12
                      A                      A                      A
 Frequencies --    252.5734               279.6991               306.1569
 Red. masses --      3.8298                 3.7620                 5.3946
 Frc consts  --      0.1439                 0.1734                 0.2979
 IR Inten    --      0.8487                 5.9307                 5.8789

                     13                     14                     15
                      A                      A                      A
 Frequencies --    349.9436               372.3972               415.8680
 Red. masses --      6.9291                 3.8086                 4.2115
 Frc consts  --      0.4999                 0.3112                 0.4291
 IR Inten    --      3.8109                 4.6328                 6.5789

                     16                     17                     18
                      A                      A                      A
 Frequencies --    433.4152               468.6655               473.9016
 Red. masses --      7.1716                 5.7025                 6.6451
 Frc consts  --      0.7937                 0.7380                 0.8793
 IR Inten    --      8.0250                 2.5285                 0.5028

                     19                     20                     21
                      A                      A                      A
 Frequencies --    503.8087               540.5503               574.1759
 Red. masses --      3.4553                 1.4227                 5.2478
 Frc consts  --      0.5167                 0.2449                 1.0193
 IR Inten    --      4.2626                42.7161                 3.2667

                     22                     23                     24
                      A                      A                      A
 Frequencies --    617.8047               627.6728               646.3356
 Red. masses --      4.8352                 5.8148                 7.4821
 Frc consts  --      1.0874                 1.3498                 1.8416
 IR Inten    --     17.5240                19.8021                 7.2461

                     25                     26                     27
                      A                      A                      A
 Frequencies --    677.5507               691.2910               713.3123
 Red. masses --      4.7045                 5.3970                 4.0501
 Frc consts  --      1.2725                 1.5196                 1.2142
 IR Inten    --      7.7873                14.8724                 0.6502

                     28                     29                     30
                      A                      A                      A
 Frequencies --    751.6189               833.6245               852.0675
 Red. masses --      5.4248                 3.5739                 1.7280
 Frc consts  --      1.8056                 1.4633                 0.7392
 IR Inten    --      8.6703                22.3940                21.1007

                     31                     32                     33
                      A                      A                      A
 Frequencies --    855.8359               925.9752               952.6721
 Red. masses --      1.8694                 1.8604                 1.4642
 Frc consts  --      0.8067                 0.9398                 0.7830
 IR Inten    --      3.5138                 8.8566                 8.3266

                     34                     35                     36
                      A                      A                      A
 Frequencies --    989.4873               998.0028              1004.7509
 Red. masses --      1.7276                 1.9146                 2.3210
 Frc consts  --      0.9966                 1.1235                 1.3805
 IR Inten    --      1.9192                 3.1770                 1.0709

                     37                     38                     39
                      A                      A                      A
 Frequencies --   1033.6458              1045.5776              1087.5320
 Red. masses --      3.1589                 1.6112                 4.8119
 Frc consts  --      1.9885                 1.0378                 3.3531
 IR Inten    --     22.7726                 1.4224                 7.8520

                     40                     41                     42
                      A                      A                      A
 Frequencies --   1139.7086              1162.8893              1178.6182
 Red. masses --      3.5597                 2.5479                 1.4224
 Frc consts  --      2.7243                 2.0301                 1.1642
 IR Inten    --    173.9147                25.6481                17.5384

                     43                     44                     45
                      A                      A                      A
 Frequencies --   1195.5917              1236.5010              1245.4056
 Red. masses --      1.2816                 2.5146                 1.2427
 Frc consts  --      1.0794                 2.2652                 1.1356
 IR Inten    --      3.4903                 3.1202                14.2979

                     46                     47                     48
                      A                      A                      A
 Frequencies --   1282.4604              1299.2718              1315.3326
 Red. masses --      2.0649                 1.6687                 1.6864
 Frc consts  --      2.0010                 1.6597                 1.7190
 IR Inten    --     10.9819                95.4664                 4.1101

                     49                     50                     51
                      A                      A                      A
 Frequencies --   1336.5160              1348.9397              1368.3337
 Red. masses --      1.7904                 1.5991                 1.4237
 Frc consts  --      1.8843                 1.7144                 1.5706
 IR Inten    --      0.6948                64.2063                17.6744

                     52                     53                     54
                      A                      A                      A
 Frequencies --   1409.8653              1419.9939              1465.5929
 Red. masses --      2.6295                 2.0972                 1.4765
 Frc consts  --      3.0795                 2.4915                 1.8686
 IR Inten    --    220.6512                29.5492                 5.0076

                     55                     56                     57
                      A                      A                      A
 Frequencies --   1490.7530              1496.3997              1504.8398
 Red. masses --      1.0926                 1.3938                 1.8297
 Frc consts  --      1.4307                 1.8389                 2.4412
 IR Inten    --     21.5236                54.0632                52.2868

                     58                     59                     60
                      A                      A                      A
 Frequencies --   1513.4292              1590.5252              1633.0554
 Red. masses --      1.1057                 6.2304                 5.3819
 Frc consts  --      1.4921                 9.2864                 8.4564
 IR Inten    --      2.8975                20.2644               119.0857

                     61                     62                     63
                      A                      A                      A
 Frequencies --   1648.3690              2375.9379              3058.6343
 Red. masses --      4.2219                12.5739                 1.0653
 Frc consts  --      6.7587                41.8205                 5.8721
 IR Inten    --    400.0178                41.3679                 7.9561

                     64                     65                     66
                      A                      A                      A
 Frequencies --   3065.4939              3101.9764              3123.3591
 Red. masses --      1.0637                 1.0610                 1.1039
 Frc consts  --      5.8893                 6.0153                 6.3451
 IR Inten    --      4.0140                 0.6713                 0.4722

                     67                     68                     69
                      A                      A                      A
 Frequencies --   3137.5507              3154.9047              3174.8193
 Red. masses --      1.1020                 1.0914                 1.1100
 Frc consts  --      6.3918                 6.4004                 6.5921
 IR Inten    --      0.4837                 9.0477                 1.6594

                     70                     71                     72
                      A                      A                      A
 Frequencies --   3185.4630              3234.3061              3442.1362
 Red. masses --      1.0911                 1.0953                 1.0778
 Frc consts  --      6.5232                 6.7508                 7.5237
 IR Inten    --      4.6261                 1.1473               471.0250

 - Thermochemistry -
 -------------------
 Temperature   298.150 Kelvin.  Pressure   1.00000 Atm.
 Atom     1 has atomic number 17 and mass  34.96885

 Molecular mass:   253.03147 amu.
 Principal axes and moments of inertia in atomic units:
                           1         2         3
     Eigenvalues --  2287.206137944.954469123.42896
           X            0.99990   0.01388   0.00187
           Y           -0.01389   0.99987   0.00768
           Z           -0.00177  -0.00770   0.99997
 This molecule is an asymmetric top.
 Rotational symmetry number  1.
 Warning -- assumption of classical behavior for rotation
           may cause significant error
 Rotational temperatures (Kelvin)      0.03787     0.01090     0.00949
 Rotational constants (GHZ):           0.78906     0.22716     0.19781
 Zero-point vibrational energy     511697.7 (Joules/Mol)
                                  122.29868 (Kcal/Mol)
 Warning -- explicit consideration of  22 degrees of freedom as
           vibrations may cause significant error
 Vibrational temperatures:     34.76    49.65    61.79   126.60   144.14
          (Kelvin)            166.98   214.08   244.60   304.49   363.40
                              402.42   440.49   503.49   535.80   598.34
                              623.59   674.31   681.84   724.87   777.73
                              826.11   888.88   903.08   929.93   974.84
                              994.61  1026.30  1081.41  1199.40  1225.94
                             1231.36  1332.27  1370.68  1423.65  1435.90
                             1445.61  1487.19  1504.35  1564.72  1639.79
                             1673.14  1695.77  1720.19  1779.05  1791.86
                             1845.17  1869.36  1892.47  1922.95  1940.82
                             1968.73  2028.48  2043.05  2108.66  2144.86
                             2152.99  2165.13  2177.49  2288.41  2349.60
                             2371.64  3418.44  4400.69  4410.56  4463.05
                             4493.82  4514.24  4539.20  4567.86  4583.17
                             4653.45  4952.47

 Zero-point correction=                           0.194895 (Hartree/Particle)
 Thermal correction to Energy=                    0.209603
 Thermal correction to Enthalpy=                  0.210547
 Thermal correction to Gibbs Free Energy=         0.150521
 Sum of electronic and zero-point Energies=          -1464.061093
 Sum of electronic and thermal Energies=             -1464.046385
 Sum of electronic and thermal Enthalpies=           -1464.045441
 Sum of electronic and thermal Free Energies=        -1464.105467

                     E (Thermal)             CV                S
                      KCal/Mol        Cal/Mol-Kelvin    Cal/Mol-Kelvin
 Total                  131.528             54.251            126.336
 Electronic               0.000              0.000              0.000
 Translational            0.889              2.981             42.485
 Rotational               0.889              2.981             33.472
 Vibrational            129.750             48.289             50.379
 Vibration     1          0.593              1.985              6.259
 Vibration     2          0.594              1.983              5.552
 Vibration     3          0.595              1.980              5.118
 Vibration     4          0.601              1.958              3.704
 Vibration     5          0.604              1.949              3.451
 Vibration     6          0.608              1.936              3.165
 Vibration     7          0.618              1.904              2.688
 Vibration     8          0.625              1.879              2.435
 Vibration     9          0.643              1.823              2.030
 Vibration    10          0.664              1.758              1.713
 Vibration    11          0.680              1.711              1.536
 Vibration    12          0.697              1.662              1.383
 Vibration    13          0.727              1.575              1.166
 Vibration    14          0.744              1.529              1.070
 Vibration    15          0.779              1.436              0.906
 Vibration    16          0.794              1.397              0.848
 Vibration    17          0.826              1.320              0.741
 Vibration    18          0.831              1.308              0.727
 Vibration    19          0.859              1.242              0.649
 Vibration    20          0.896              1.160              0.564
 Vibration    21          0.930              1.087              0.496
 Vibration    22          0.978              0.994              0.420

                           ! Non-Optimized Parameters !
 Normal termination of Gaussian 16 at Mon Jul 30 20:58:08 2018.
