 Gaussian 16, Revision A.03,
 Gaussian 16:  ES64L-G16RevA.03 25-Dec-2016

 ----------------------------------------------------------------------
 # opt=maxcycles=150 freq b3lyp/6-31++g(d,p) empiricaldispersion=GD3 in
 t=ultrafine scf=xqc pop=(mk,dipole)
 ----------------------------------------------------------------------

 -----------------------------
 Original File: THIAMETHOXAM_5
 -----------------------------
 Symbolic Z-matrix:
 Charge =  1 Multiplicity = 1

 SCF Done:  E(RB3LYP) =  -1668.90163541     A.U. after   18 cycles
 SCF Done:  E(RB3LYP) =  -1668.92501853     A.U. after   15 cycles
 SCF Done:  E(RB3LYP) =  -1668.92891778     A.U. after   15 cycles
 SCF Done:  E(RB3LYP) =  -1668.92949377     A.U. after   14 cycles
 SCF Done:  E(RB3LYP) =  -1668.93005652     A.U. after   14 cycles
 SCF Done:  E(RB3LYP) =  -1668.93069151     A.U. after   14 cycles
 SCF Done:  E(RB3LYP) =  -1668.93139789     A.U. after   14 cycles
 SCF Done:  E(RB3LYP) =  -1668.93141550     A.U. after   14 cycles
 SCF Done:  E(RB3LYP) =  -1668.93156361     A.U. after   14 cycles
 SCF Done:  E(RB3LYP) =  -1668.93163383     A.U. after   12 cycles
 SCF Done:  E(RB3LYP) =  -1668.93168099     A.U. after   13 cycles
 SCF Done:  E(RB3LYP) =  -1668.93172258     A.U. after   12 cycles
 SCF Done:  E(RB3LYP) =  -1668.93173287     A.U. after   11 cycles
 SCF Done:  E(RB3LYP) =  -1668.93173827     A.U. after   12 cycles
 SCF Done:  E(RB3LYP) =  -1668.93173959     A.U. after   11 cycles
 SCF Done:  E(RB3LYP) =  -1668.93174001     A.U. after   10 cycles
 SCF Done:  E(RB3LYP) =  -1668.93174010     A.U. after    9 cycles
 SCF Done:  E(RB3LYP) =  -1668.93174005     A.U. after    9 cycles
 Optimization completed.
    -- Stationary point found.
 Normal termination of Gaussian 16 at Mon Jul 30 21:10:47 2018.

 ----------------------------------------------------------------------
 #N Geom=AllCheck Guess=TCheck SCRF=Check GenChk RB3LYP/6-31++G(d,p) Fr
 eq
 ----------------------------------------------------------------------

 Structure from the checkpoint file:  "/scratch/cieritan/chk/THIAMETHOXAM_5.chk"
 -----------------------------
 Original File: THIAMETHOXAM_5
 -----------------------------
 Charge =  1 Multiplicity = 1

                         Standard orientation:
 ---------------------------------------------------------------------
 Center     Atomic      Atomic             Coordinates (Angstroms)
 Number     Number       Type             X           Y           Z
 ---------------------------------------------------------------------
      1         17           0       -4.579207    0.938219    1.056146
      2         16           0       -1.892398    0.783537   -0.306533
      3          8           0        2.691865   -2.471975    0.073433
      4          8           0        3.415616    1.991177    0.135087
      5          8           0        2.017052    3.259675   -0.955927
      6          7           0        0.958689   -1.104877   -0.664113
      7          7           0        2.508262   -0.224550    0.926509
      8          7           0        1.542653    1.108133   -0.895453
      9          7           0       -3.566069   -1.203275   -0.168123
     10          7           0        2.362999    2.182335   -0.539289
     11          6           0        1.289315   -2.414529   -0.082286
     12          6           0        1.664244   -0.041350   -0.287072
     13          6           0       -0.124903   -0.986125   -1.686991
     14          6           0        3.130623   -1.636190    1.084983
     15          6           0       -1.446520   -0.748996   -1.029950
     16          6           0        1.726962    0.208219    2.153805
     17          6           0       -2.461814   -1.651492   -0.849945
     18          6           0       -3.410661    0.033552    0.182268
     19          1           0        0.771654   -2.572412    0.874390
     20          1           0        1.000367   -3.189718   -0.790687
     21          1           0       -0.146642   -1.926962   -2.242012
     22          1           0        0.157803   -0.188311   -2.374921
     23          1           0        4.213211   -1.536773    1.006086
     24          1           0        2.831447   -1.984255    2.080207
     25          1           0        0.866597   -0.448911    2.282317
     26          1           0        1.401361    1.238497    2.012522
     27          1           0        2.396562    0.147315    3.012352
     28          1           0       -2.453411   -2.671396   -1.219633
     29          1           0        3.240445    0.532702    0.763100
 ---------------------------------------------------------------------

 SCF Done:  E(RB3LYP) =  -1668.93174005     A.U. after    1 cycles

 The electronic state is 1-A.
 Alpha  occ. eigenvalues -- -101.68148 -89.05973 -19.38099 -19.35743 -19.35411
 Alpha  occ. eigenvalues --  -14.76579 -14.64473 -14.58925 -14.55356 -14.47482
 Alpha  occ. eigenvalues --  -10.52695 -10.48991 -10.47651 -10.43271 -10.43025
 Alpha  occ. eigenvalues --  -10.41183 -10.37172 -10.36512  -9.59632  -8.11867
 Alpha  occ. eigenvalues --   -7.36102  -7.35049  -7.34983  -6.08287  -6.07939
 Alpha  occ. eigenvalues --   -6.07552  -1.40807  -1.29394  -1.23376  -1.20893
 Alpha  occ. eigenvalues --   -1.16047  -1.11528  -1.11141  -0.99062  -0.96793
 Alpha  occ. eigenvalues --   -0.95282  -0.92444  -0.90966  -0.89340  -0.85134
 Alpha  occ. eigenvalues --   -0.84012  -0.79011  -0.76616  -0.73923  -0.72617
 Alpha  occ. eigenvalues --   -0.72078  -0.70686  -0.70329  -0.69408  -0.68450
 Alpha  occ. eigenvalues --   -0.67771  -0.66460  -0.65407  -0.64321  -0.62414
 Alpha  occ. eigenvalues --   -0.61257  -0.60373  -0.59220  -0.57713  -0.55991
 Alpha  occ. eigenvalues --   -0.55492  -0.55064  -0.54779  -0.52504  -0.50167
 Alpha  occ. eigenvalues --   -0.49305  -0.48014  -0.47961  -0.46497  -0.45799
 Alpha  occ. eigenvalues --   -0.44273  -0.43550  -0.41989  -0.41280  -0.37390
 Alpha virt. eigenvalues --   -0.25639  -0.17911  -0.16861  -0.15406  -0.13822
 Alpha virt. eigenvalues --   -0.13059  -0.12938  -0.12515  -0.11990  -0.11049
 Alpha virt. eigenvalues --   -0.10430  -0.09687  -0.09463  -0.09374  -0.08844

 Mulliken charges:
               1
     1  Cl   0.282127
     2  S    0.454234
     3  O   -0.245280
     4  O   -0.050085
     5  O    0.040489
     6  N    0.099582
     7  N   -0.655603
     8  N    0.137344
     9  N   -0.004563
    10  N   -0.303807
    11  C    0.106970
    12  C   -0.564722
    13  C   -0.520997
    14  C    0.196299
    15  C    0.202067
    16  C   -0.082285
    17  C   -0.320966
    18  C   -0.253415
    19  H    0.212860
    20  H    0.209806
    21  H    0.190045
    22  H    0.219129
    23  H    0.192578
    24  H    0.191843
    25  H    0.187052
    26  H    0.194135
    27  H    0.225221
    28  H    0.173558
    29  H    0.486382
 Sum of Mulliken charges =   1.00000

 Dipole moment (field-independent basis, Debye):
    X=              7.3878    Y=             -6.0068    Z=              3.6987  Tot=             10.2147
 Quadrupole moment (field-independent basis, Debye-Ang):
   XX=            -98.1797   YY=           -109.4426   ZZ=            -98.8485
   XY=            -13.8881   XZ=             14.1446   YZ=              4.2118

  Exact polarizability: 202.772   9.764 187.193  -5.627   4.376 130.753
 Approx polarizability: 290.711  21.933 335.300 -12.028   5.298 208.464

 ESP charges:
               1
     1  Cl   0.024163
     2  S    0.003352
     3  O   -0.263051
     4  O   -0.539313
     5  O   -0.302481
     6  N   -0.123924
     7  N   -0.453592
     8  N   -0.585740
     9  N   -0.420459
    10  N    0.912975
    11  C    0.014562
    12  C    0.624708
    13  C   -0.294211
    14  C    0.100284
    15  C   -0.024607
    16  C   -0.280331
    17  C    0.142253
    18  C    0.261425
    19  H    0.121827
    20  H    0.192881
    21  H    0.185228
    22  H    0.235243
    23  H    0.161403
    24  H    0.156200
    25  H    0.167268
    26  H    0.162485
    27  H    0.199507
    28  H    0.116950
    29  H    0.504997
 Sum of ESP charges =   1.00000

                      1                      2                      3
                      A                      A                      A
 Frequencies --      9.4123                28.1094                41.3825
 Red. masses --      9.6482                 6.1697                 9.4319
 Frc consts  --      0.0005                 0.0029                 0.0095
 IR Inten    --      2.8566                 5.5697                 1.3262

                      4                      5                      6
                      A                      A                      A
 Frequencies --     50.2826                82.7899               102.9258
 Red. masses --      5.9234                 4.3857                 4.0952
 Frc consts  --      0.0088                 0.0177                 0.0256
 IR Inten    --      0.0104                 1.9180                 4.0224

                      7                      8                      9
                      A                      A                      A
 Frequencies --    109.2955               139.8608               148.5986
 Red. masses --      7.6061                12.6110                 8.7080
 Frc consts  --      0.0535                 0.1453                 0.1133
 IR Inten    --      1.2123                 2.1039                 1.2831

                     10                     11                     12
                      A                      A                      A
 Frequencies --    206.1153               220.0123               234.0318
 Red. masses --      4.0305                 2.8037                 1.5656
 Frc consts  --      0.1009                 0.0800                 0.0505
 IR Inten    --     13.7806                 1.7974                 2.2708

                     13                     14                     15
                      A                      A                      A
 Frequencies --    287.7066               304.7887               321.7407
 Red. masses --      6.2860                 3.7427                 7.8484
 Frc consts  --      0.3066                 0.2048                 0.4787
 IR Inten    --      2.4753                10.9617                 2.5000

                     16                     17                     18
                      A                      A                      A
 Frequencies --    354.7666               372.4861               393.2178
 Red. masses --      3.1321                 2.6932                 3.9552
 Frc consts  --      0.2323                 0.2202                 0.3603
 IR Inten    --      1.4364                 7.9809                 3.3734

                     19                     20                     21
                      A                      A                      A
 Frequencies --    428.1830               455.1353               478.8317
 Red. masses --      8.2726                 5.6635                 3.1532
 Frc consts  --      0.8936                 0.6912                 0.4260
 IR Inten    --      8.4023                 6.4352                 0.9279

                     22                     23                     24
                      A                      A                      A
 Frequencies --    507.0674               578.4465               587.2622
 Red. masses --      5.2488                 5.9954                 7.9970
 Frc consts  --      0.7951                 1.1819                 1.6250
 IR Inten    --      4.8940                 5.5216                 3.8444

                     25                     26                     27
                      A                      A                      A
 Frequencies --    603.2243               638.8717               673.1549
 Red. masses --      5.8255                 8.5025                 5.6988
 Frc consts  --      1.2489                 2.0447                 1.5215
 IR Inten    --      6.6993                 9.8947                11.9198

                     28                     29                     30
                      A                      A                      A
 Frequencies --    683.8107               713.1818               728.8061
 Red. masses --      4.9866                 8.8790                 8.1954
 Frc consts  --      1.3738                 2.6608                 2.5647
 IR Inten    --     11.6833                 9.5400                27.9275

                     31                     32                     33
                      A                      A                      A
 Frequencies --    746.5855               769.9394               795.1457
 Red. masses --      7.2680                11.5310                 7.5418
 Frc consts  --      2.3868                 4.0275                 2.8094
 IR Inten    --     10.6996                 9.3582                 9.7191

                     34                     35                     36
                      A                      A                      A
 Frequencies --    863.6491               888.2546               905.2221
 Red. masses --      3.7752                 1.5472                 3.2528
 Frc consts  --      1.6591                 0.7192                 1.5704
 IR Inten    --     15.4552                26.0730               174.2008

                     37                     38                     39
                      A                      A                      A
 Frequencies --    946.5861               953.2000               981.7406
 Red. masses --      6.3420                 2.4051                 5.3687
 Frc consts  --      3.3481                 1.2875                 3.0487
 IR Inten    --     82.3358                16.1638                 2.6658

                     40                     41                     42
                      A                      A                      A
 Frequencies --   1016.6411              1032.5031              1069.9004
 Red. masses --      2.9374                 9.3515                 1.4759
 Frc consts  --      1.7888                 5.8738                 0.9954
 IR Inten    --     94.5559               162.2679                22.1090

                     43                     44                     45
                      A                      A                      A
 Frequencies --   1088.1085              1137.7554              1144.0722
 Red. masses --      2.2983                 2.7409                 2.1642
 Frc consts  --      1.6033                 2.0905                 1.6690
 IR Inten    --     17.1289               104.8419                 4.4030

                     46                     47                     48
                      A                      A                      A
 Frequencies --   1180.6623              1193.0579              1201.3903
 Red. masses --      1.8728                 2.8179                 2.2651
 Frc consts  --      1.5381                 2.3632                 1.9262
 IR Inten    --    106.9356                25.7413                18.9735

                     49                     50                     51
                      A                      A                      A
 Frequencies --   1207.1826              1229.9576              1276.6757
 Red. masses --      2.3171                 2.5264                 1.2901
 Frc consts  --      1.9895                 2.2518                 1.2389
 IR Inten    --     30.9561               291.3918                49.6649

                     52                     53                     54
                      A                      A                      A
 Frequencies --   1284.7197              1328.5017              1339.5855
 Red. masses --      1.8280                 1.1811                 1.7465
 Frc consts  --      1.7776                 1.2281                 1.8466
 IR Inten    --    125.2966                 9.1848                23.6511

                     55                     56                     57
                      A                      A                      A
 Frequencies --   1374.8442              1378.3045              1387.9272
 Red. masses --      1.3335                 1.7977                 1.4820
 Frc consts  --      1.4851                 2.0122                 1.6821
 IR Inten    --     52.4436               127.3884                20.9073

                     58                     59                     60
                      A                      A                      A
 Frequencies --   1438.5854              1461.7549              1474.9926
 Red. masses --      1.2075                 1.5827                 2.0732
 Frc consts  --      1.4723                 1.9925                 2.6574
 IR Inten    --      3.5113                68.8109                42.4322

                     61                     62                     63
                      A                      A                      A
 Frequencies --   1479.2771              1482.7653              1491.8328
 Red. masses --      1.8253                 1.0932                 1.1125
 Frc consts  --      2.3534                 1.4160                 1.4588
 IR Inten    --     79.9080                34.5990                10.8802

                     64                     65                     66
                      A                      A                      A
 Frequencies --   1498.7464              1511.3995              1523.7926
 Red. masses --      1.5026                 1.1552                 1.1040
 Frc consts  --      1.9886                 1.5548                 1.5103
 IR Inten    --     94.8144                66.0785                49.6358

                     67                     68                     69
                      A                      A                      A
 Frequencies --   1529.1148              1572.3437              1631.9970
 Red. masses --      1.1077                 5.9375                 9.9237
 Frc consts  --      1.5260                 8.6486                15.5726
 IR Inten    --      3.2736                56.3787               727.5622

                     70                     71                     72
                      A                      A                      A
 Frequencies --   1716.5776              2791.7824              3030.5212
 Red. masses --      4.9060                 1.0850                 1.0697
 Frc consts  --      8.5173                 4.9823                 5.7881
 IR Inten    --    348.4114               555.2036                16.6699

                     73                     74                     75
                      A                      A                      A
 Frequencies --   3062.4292              3085.8609              3096.2043
 Red. masses --      1.0644                 1.0302                 1.0614
 Frc consts  --      5.8815                 5.7800                 5.9949
 IR Inten    --     11.0976                 0.2109                 4.6144

                     76                     77                     78
                      A                      A                      A
 Frequencies --   3155.8484              3168.4627              3172.2915
 Red. masses --      1.1070                 1.0997                 1.1080
 Frc consts  --      6.4956                 6.5047                 6.5696
 IR Inten    --      0.7574                 0.4486                 0.3030

                     79                     80                     81
                      A                      A                      A
 Frequencies --   3190.3764              3195.1629              3217.5055
 Red. masses --      1.1100                 1.1098                 1.0945
 Frc consts  --      6.6568                 6.6753                 6.6757
 IR Inten    --      0.1807                 0.0131                 3.2710

 - Thermochemistry -
 -------------------
 Temperature   298.150 Kelvin.  Pressure   1.00000 Atm.
 Atom     1 has atomic number 17 and mass  34.96885

 Molecular mass:   292.02711 amu.
 Principal axes and moments of inertia in atomic units:
                           1         2         3
     Eigenvalues --  3385.738468418.550419981.99512
           X            0.99984  -0.00282   0.01742
           Y            0.00268   0.99996   0.00837
           Z           -0.01744  -0.00832   0.99981
 This molecule is an asymmetric top.
 Rotational symmetry number  1.
 Warning -- assumption of classical behavior for rotation
           may cause significant error
 Rotational temperatures (Kelvin)      0.02558     0.01029     0.00868
 Rotational constants (GHZ):           0.53304     0.21438     0.18080
 Zero-point vibrational energy     563352.8 (Joules/Mol)
                                  134.64456 (Kcal/Mol)
 Warning -- explicit consideration of  25 degrees of freedom as
           vibrations may cause significant error
 Vibrational temperatures:     13.54    40.44    59.54    72.35   119.12
          (Kelvin)            148.09   157.25   201.23   213.80   296.55
                              316.55   336.72   413.95   438.52   462.91
                              510.43   535.92   565.75   616.06   654.84
                              688.93   729.56   832.26   844.94   867.91
                              919.19   968.52   983.85  1026.11  1048.59
                             1074.17  1107.77  1144.04  1242.60  1278.00
                             1302.41  1361.93  1371.44  1412.51  1462.72
                             1485.54  1539.35  1565.55  1636.98  1646.06
                             1698.71  1716.54  1728.53  1736.87  1769.63
                             1836.85  1848.43  1911.42  1927.36  1978.09
                             1983.07  1996.92  2069.80  2103.14  2122.19
                             2128.35  2133.37  2146.41  2156.36  2174.57
                             2192.40  2200.06  2262.25  2348.08  2469.77
                             4016.75  4360.24  4406.15  4439.87  4454.75
                             4540.56  4558.71  4564.22  4590.24  4597.13
                             4629.27

 Zero-point correction=                           0.214570 (Hartree/Particle)
 Thermal correction to Energy=                    0.231287
 Thermal correction to Enthalpy=                  0.232231
 Thermal correction to Gibbs Free Energy=         0.166334
 Sum of electronic and zero-point Energies=          -1668.717170
 Sum of electronic and thermal Energies=             -1668.700453
 Sum of electronic and thermal Enthalpies=           -1668.699509
 Sum of electronic and thermal Free Energies=        -1668.765406

                     E (Thermal)             CV                S
                      KCal/Mol        Cal/Mol-Kelvin    Cal/Mol-Kelvin
 Total                  145.135             60.868            138.694
 Electronic               0.000              0.000              0.000
 Translational            0.889              2.981             42.912
 Rotational               0.889              2.981             34.008
 Vibrational            143.358             54.907             61.773
 Vibration     1          0.593              1.987              8.131
 Vibration     2          0.593              1.984              5.959
 Vibration     3          0.594              1.981              5.192
 Vibration     4          0.595              1.977              4.806
 Vibration     5          0.600              1.961              3.824
 Vibration     6          0.605              1.947              3.398
 Vibration     7          0.606              1.942              3.281
 Vibration     8          0.615              1.913              2.806
 Vibration     9          0.618              1.904              2.690
 Vibration    10          0.641              1.831              2.078
 Vibration    11          0.647              1.811              1.959
 Vibration    12          0.654              1.789              1.848
 Vibration    13          0.685              1.697              1.487
 Vibration    14          0.696              1.665              1.390
 Vibration    15          0.707              1.632              1.301
 Vibration    16          0.731              1.565              1.145
 Vibration    17          0.744              1.529              1.070
 Vibration    18          0.760              1.485              0.988
 Vibration    19          0.790              1.409              0.865
 Vibration    20          0.813              1.350              0.780
 Vibration    21          0.835              1.297              0.713
 Vibration    22          0.862              1.234              0.641
 Vibration    23          0.935              1.078              0.488
 Vibration    24          0.944              1.059              0.472
 Vibration    25          0.962              1.025              0.444

                           ! Non-Optimized Parameters !
 Normal termination of Gaussian 16 at Mon Jul 30 21:29:37 2018.
