                         Program Version 5.0.2 -  RELEASE  -
|  1> # GGG-H_tt_001 (old 007)
|  2> ! wB97X-D3BJ Opt Freq def2-TZVPP def2/J RIJCOSX VeryTightSCF
|  3> ! PAL8 defgrid3 VeryTightOpt
|  4>
|  5> %maxcore 4096
|  6>
|  7> %geom
|  8>   MaxIter 300
|  9>   # MaxStep 0.1
| 10>   Calc_Hess true
| 11>   Recalc_Hess 10
| 12> end
| 13>
| 14> %chelpg
| 15>   grid 0.1
| 16>   rmax 3.0
| 17> end
| 18>
| 19> * xyz 1 1
| 20>  N   +0.555371   +1.960532   +2.334720
| 21>  H   +1.157595   +2.384244   +1.624142
| 22>  C   +1.193433   +1.572788   +3.603855
| 23>  C   +1.804108   +0.192837   +3.328528
| 24>  H   +1.981656   +2.292798   +3.856769
| 25>  H   +0.434447   +1.540014   +4.401099
| 26>  O   +2.986100   +0.035378   +3.025901
| 27>  C   -0.537189   +1.271841   +1.902306
| 28>  C   -0.736302   +1.224050   +0.382194
| 29>  O   -1.186863   +0.520038   +2.646243
| 30>  N   +0.000000   +0.000000   +0.000000
| 31>  H   -0.309692   +2.083662   -0.154530
| 32>  H   -1.797724   +1.101342   +0.130923
| 33>  H   -0.488561   -0.883423   +0.154855
| 34>  C   +1.355030   +0.000000   +0.000000
| 35>  C   +2.070208   -1.364060   +0.049087
| 36>  O   +2.047577   +1.023359   +0.000000
| 37>  H   +2.208116   -1.776494   -0.964074
| 38>  H   +1.546538   -2.096632   +0.680959
| 39>  O   +0.947246   -0.825389   +3.255480
| 40>  H   +0.003239   -0.476464   +3.336739
| 41>  N   +3.408980   -1.071287   +0.649958
| 42>  H   +4.099129   -1.819806   +0.499859
| 43>  H   +3.734263   -0.177740   +0.224610
| 44>  H   +3.314188   -0.841693   +1.702914
| 45> *
| 46>
| 47>                          ****END OF INPUT****
 Total Charge           Charge          ....    1
 Multiplicity           Mult            ....    1
 Number of Electrons    NEL             ....  100
Dispersion correction           -0.048231606
FINAL SINGLE POINT ENERGY      -701.346805009803
Dispersion correction            ... done
Dispersion correction in the Hessian             ... done   (      0.6 sec)
Dispersion correction           -0.048174762
FINAL SINGLE POINT ENERGY      -701.350729547362
Dispersion correction            ... done
Dispersion correction           -0.048120950
FINAL SINGLE POINT ENERGY      -701.350810760575
FINAL SINGLE POINT ENERGY      -701.350827345578
FINAL SINGLE POINT ENERGY      -701.350831313751
Dispersion correction           -0.048034351
FINAL SINGLE POINT ENERGY      -701.350831816912
Dispersion correction            ... done
Dispersion correction           -0.048036028
FINAL SINGLE POINT ENERGY      -701.350831888696
Dispersion correction            ... done
                    ***********************HURRAY********************

CARTESIAN COORDINATES (ANGSTROEM)
---------------------------------
  N      0.537544    1.960340    2.339582
  H      1.138258    2.378096    1.645642
  C      1.161795    1.576339    3.603512
  C      1.788767    0.207741    3.347841
  H      1.939532    2.290301    3.858340
  H      0.412952    1.542236    4.393317
  O      2.952678    0.063252    3.030659
  C     -0.542216    1.273469    1.896322
  C     -0.714529    1.219767    0.380505
  O     -1.219001    0.559257    2.624217
  N      0.022827    0.006160    0.002431
  H     -0.295952    2.076030   -0.143517
  H     -1.763008    1.096363    0.124226
  H     -0.451896   -0.868514    0.162521
  C      1.367801    0.011164   -0.013713
  C      2.070343   -1.350041    0.040692
  O      2.057322    1.017831   -0.037753
  H      2.185785   -1.763081   -0.961520
  H      1.550900   -2.063114    0.678453
  O      0.962621   -0.830463    3.334428
  H      0.036396   -0.528433    3.441205
  N      3.416852   -1.079459    0.619902
  H      4.065483   -1.851604    0.484303
  H      3.777137   -0.225817    0.178682
  H      3.332500   -0.847929    1.642260

 Multiplicity           Mult            ....    1
 Number of Electrons    NEL             ....  100
 Basis Dimension        Dim             ....  571

ORBITAL ENERGIES
----------------

  NO   OCC          E(Eh)            E(eV)
   0   2.0000     -19.408809      -528.1405
   1   2.0000     -19.363508      -526.9078
   2   2.0000     -19.363142      -526.8979
   3   2.0000     -19.338729      -526.2336
   4   2.0000     -14.693590      -399.8329
   5   2.0000     -14.615513      -397.7083
   6   2.0000     -14.595356      -397.1598
   7   2.0000     -10.566936      -287.5409
   8   2.0000     -10.560962      -287.3784
   9   2.0000     -10.533151      -286.6216
  10   2.0000     -10.517727      -286.2019
  11   2.0000     -10.472375      -284.9678
  12   2.0000     -10.470180      -284.9081
  13   2.0000      -1.399868       -38.0923
  14   2.0000      -1.366314       -37.1793
  15   2.0000      -1.336149       -36.3585
  16   2.0000      -1.310342       -35.6562
  17   2.0000      -1.297198       -35.2985
  18   2.0000      -1.238050       -33.6890
  19   2.0000      -1.218997       -33.1706
  20   2.0000      -1.071367       -29.1534
  21   2.0000      -1.032945       -28.1079
  22   2.0000      -0.992705       -27.0129
  23   2.0000      -0.898975       -24.4624
  24   2.0000      -0.889605       -24.2074
  25   2.0000      -0.882533       -24.0149
  26   2.0000      -0.869120       -23.6499
  27   2.0000      -0.860012       -23.4021
  28   2.0000      -0.819288       -22.2940
  29   2.0000      -0.815804       -22.1992
  30   2.0000      -0.787515       -21.4294
  31   2.0000      -0.777273       -21.1507
  32   2.0000      -0.767785       -20.8925
  33   2.0000      -0.749308       -20.3897
  34   2.0000      -0.734859       -19.9965
  35   2.0000      -0.731959       -19.9176
  36   2.0000      -0.709921       -19.3179
  37   2.0000      -0.694864       -18.9082
  38   2.0000      -0.687853       -18.7174
  39   2.0000      -0.670539       -18.2463
  40   2.0000      -0.663045       -18.0424
  41   2.0000      -0.660164       -17.9640
  42   2.0000      -0.650174       -17.6921
  43   2.0000      -0.641301       -17.4507
  44   2.0000      -0.587230       -15.9793
  45   2.0000      -0.564461       -15.3598
  46   2.0000      -0.559708       -15.2304
  47   2.0000      -0.553693       -15.0667
  48   2.0000      -0.524105       -14.2616
  49   2.0000      -0.508382       -13.8338
  50   0.0000      -0.088857        -2.4179
  51   0.0000      -0.075762        -2.0616
  52   0.0000      -0.057499        -1.5646
  53   0.0000      -0.048564        -1.3215
  54   0.0000      -0.034147        -0.9292

MULLIKEN ATOMIC CHARGES
-----------------------
   0 N :   -0.165378
   1 H :    0.206502
   2 C :   -0.124988
   3 C :    0.340830
   4 H :    0.146554
   5 H :    0.161306
   6 O :   -0.354720
   7 C :    0.224758
   8 C :   -0.090405
   9 O :   -0.382494
  10 N :   -0.158683
  11 H :    0.151236
  12 H :    0.153942
  13 H :    0.195417
  14 C :    0.242751
  15 C :   -0.174219
  16 O :   -0.382734
  17 H :    0.181480
  18 H :    0.167930
  19 O :   -0.244271
  20 H :    0.255291
  21 N :   -0.051828
  22 H :    0.231733
  23 H :    0.234503
  24 H :    0.235489
Sum of atomic charges:    1.0000000

LOEWDIN ATOMIC CHARGES
----------------------
   0 N :    0.339641
   1 H :   -0.014507
   2 C :   -0.019749
   3 C :   -0.416555
   4 H :    0.041416
   5 H :    0.038521
   6 O :    0.140461
   7 C :   -0.380524
   8 C :   -0.002778
   9 O :    0.104022
  10 N :    0.346679
  11 H :    0.034049
  12 H :    0.040625
  13 H :   -0.006177
  14 C :   -0.400193
  15 C :    0.032077
  16 O :    0.096581
  17 H :    0.040192
  18 H :    0.034552
  19 O :    0.386324
  20 H :   -0.113391
  21 N :    0.604935
  22 H :    0.044158
  23 H :    0.045190
  24 H :   -0.015551

  Mayer bond orders larger than 0.100000
B(  0-N ,  1-H ) :   0.9474 B(  0-N ,  2-C ) :   0.8968 B(  0-N ,  7-C ) :   1.2689
B(  2-C ,  3-C ) :   0.9273 B(  2-C ,  4-H ) :   0.9878 B(  2-C ,  5-H ) :   0.9915
B(  3-C ,  6-O ) :   1.9145 B(  3-C , 19-O ) :   1.2663 B(  6-O , 24-H ) :   0.1811
B(  7-C ,  8-C ) :   0.9337 B(  7-C ,  9-O ) :   1.8734 B(  8-C , 10-N ) :   0.8617
B(  8-C , 11-H ) :   1.0021 B(  8-C , 12-H ) :   0.9925 B( 10-N , 13-H ) :   0.9610
B( 10-N , 14-C ) :   1.3249 B( 14-C , 15-C ) :   0.9372 B( 14-C , 16-O ) :   1.9203
B( 15-C , 17-H ) :   0.9707 B( 15-C , 18-H ) :   0.9890 B( 15-C , 21-N ) :   0.9015
B( 19-O , 20-H ) :   0.8953 B( 21-N , 22-H ) :   0.9385 B( 21-N , 23-H ) :   0.9073
B( 21-N , 24-H ) :   0.8479

Dispersion correction           -0.048036930
FINAL SINGLE POINT ENERGY      -701.350831892561

DIPOLE MOMENT
-------------
                                X             Y             Z
Electronic contribution:     -1.11143       1.09560       2.21052
Nuclear contribution   :      2.55285      -2.51507      -3.86957
                        -----------------------------------------
Total Dipole Moment    :      1.44141      -1.41947      -1.65906
                        -----------------------------------------
Magnitude (a.u.)       :      2.61631
Magnitude (Debye)      :      6.65012

Dispersion correction in the Hessian             ... done   (      0.6 sec)

VIBRATIONAL FREQUENCIES
-----------------------

Scaling factor for frequencies =  1.000000000  (already applied!)

   0:         0.00 cm**-1
   1:         0.00 cm**-1
   2:         0.00 cm**-1
   3:         0.00 cm**-1
   4:         0.00 cm**-1
   5:         0.00 cm**-1
   6:        54.59 cm**-1
   7:        91.10 cm**-1
   8:       114.37 cm**-1
   9:       121.47 cm**-1
  10:       139.91 cm**-1
  11:       193.50 cm**-1
  12:       199.62 cm**-1
  13:       224.31 cm**-1
  14:       263.20 cm**-1
  15:       285.10 cm**-1
  16:       300.30 cm**-1
  17:       337.35 cm**-1
  18:       374.50 cm**-1
  19:       423.53 cm**-1
  20:       444.69 cm**-1
  21:       468.72 cm**-1
  22:       555.14 cm**-1
  23:       589.68 cm**-1
  24:       622.72 cm**-1
  25:       641.04 cm**-1
  26:       676.54 cm**-1
  27:       696.30 cm**-1
  28:       775.89 cm**-1
  29:       806.00 cm**-1
  30:       821.05 cm**-1
  31:       871.14 cm**-1
  32:       896.70 cm**-1
  33:       924.23 cm**-1
  34:       941.05 cm**-1
  35:      1004.29 cm**-1
  36:      1020.44 cm**-1
  37:      1050.82 cm**-1
  38:      1069.04 cm**-1
  39:      1107.98 cm**-1
  40:      1135.41 cm**-1
  41:      1149.22 cm**-1
  42:      1238.48 cm**-1
  43:      1251.95 cm**-1
  44:      1293.63 cm**-1
  45:      1321.66 cm**-1
  46:      1327.47 cm**-1
  47:      1344.49 cm**-1
  48:      1372.08 cm**-1
  49:      1387.53 cm**-1
  50:      1428.31 cm**-1
  51:      1432.34 cm**-1
  52:      1488.49 cm**-1
  53:      1491.38 cm**-1
  54:      1492.61 cm**-1
  55:      1547.95 cm**-1
  56:      1574.15 cm**-1
  57:      1584.70 cm**-1
  58:      1643.10 cm**-1
  59:      1679.56 cm**-1
  60:      1758.08 cm**-1
  61:      1778.13 cm**-1
  62:      1813.86 cm**-1
  63:      2963.61 cm**-1
  64:      3119.94 cm**-1
  65:      3133.34 cm**-1
  66:      3141.51 cm**-1
  67:      3184.88 cm**-1
  68:      3206.32 cm**-1
  69:      3209.72 cm**-1
  70:      3421.03 cm**-1
  71:      3524.34 cm**-1
  72:      3555.34 cm**-1
  73:      3642.63 cm**-1
  74:      3649.83 cm**-1

IR SPECTRUM
-----------

 Mode   freq       eps      Int      T**2         TX        TY        TZ
       cm**-1   L/(mol*cm) km/mol    a.u.
----------------------------------------------------------------------------
  6:     54.59   0.000892    4.51  0.005096  (-0.065378 -0.005685  0.028098)
  7:     91.10   0.001058    5.35  0.003625  ( 0.050437 -0.022612 -0.023869)
  8:    114.37   0.002821   14.26  0.007697  (-0.026779  0.073103  0.040445)
  9:    121.47   0.003985   20.14  0.010238  ( 0.020802 -0.010944  0.098415)
 10:    139.91   0.001352    6.83  0.003016  ( 0.005245  0.034408 -0.042482)
 11:    193.50   0.003302   16.69  0.005325  ( 0.023241 -0.050443 -0.047334)
 12:    199.62   0.004057   20.50  0.006342  (-0.010833  0.068186 -0.039687)
 13:    224.31   0.006056   30.61  0.008426  ( 0.013755  0.010497 -0.090146)
 14:    263.20   0.000984    4.97  0.001167  (-0.002435  0.017258  0.029382)
 15:    285.10   0.005689   28.75  0.006227  ( 0.035223 -0.049317 -0.050543)
 16:    300.30   0.008059   40.73  0.008375  ( 0.057751  0.005322  0.070793)
 17:    337.35   0.000641    3.24  0.000593  (-0.012914  0.020452  0.002758)
 18:    374.50   0.006145   31.05  0.005120  ( 0.050432 -0.048316  0.015574)
 19:    423.53   0.008045   40.66  0.005928  (-0.056515  0.036696  0.037248)
 20:    444.69   0.002014   10.18  0.001413  (-0.004480  0.036776  0.006382)
 21:    468.72   0.002642   13.35  0.001759  (-0.028996  0.011100 -0.028199)
 22:    555.14   0.017118   86.51  0.009623  ( 0.029542  0.047798  0.080407)
 23:    589.68   0.014182   71.67  0.007505  (-0.019401  0.067571 -0.050626)
 24:    622.72   0.007610   38.46  0.003814  ( 0.031313 -0.043208 -0.031083)
 25:    641.04   0.012635   63.85  0.006151  ( 0.031090  0.040352  0.059634)
 26:    676.54   0.013727   69.37  0.006332  ( 0.018064  0.067892  0.037366)
 27:    696.30   0.001362    6.88  0.000610  (-0.007552  0.010332 -0.021133)
 28:    775.89   0.023442  118.47  0.009428  ( 0.002526  0.057548 -0.078169)
 29:    806.00   0.006550   33.10  0.002536  (-0.012534 -0.002457 -0.048713)
 30:    821.05   0.002214   11.19  0.000841  ( 0.012855 -0.004953 -0.025527)
 31:    871.14   0.001865    9.43  0.000668  (-0.019665  0.011206 -0.012484)
 32:    896.70   0.000923    4.66  0.000321  (-0.009946 -0.007352  0.012971)
 33:    924.23   0.001571    7.94  0.000531  ( 0.004607  0.022338 -0.003212)
 34:    941.05   0.005423   27.41  0.001798  (-0.004198 -0.009605 -0.041092)
 35:   1004.29   0.000796    4.02  0.000247  (-0.010210  0.010009 -0.006553)
 36:   1020.44   0.000591    2.99  0.000181  (-0.000733  0.011489 -0.006951)
 37:   1050.82   0.001499    7.57  0.000445  (-0.016840  0.012554  0.001964)
 38:   1069.04   0.002170   10.97  0.000633  (-0.012471  0.021850  0.000669)
 39:   1107.98   0.001185    5.99  0.000334  (-0.001951 -0.006289 -0.017041)
 40:   1135.41   0.001464    7.40  0.000402  (-0.001020  0.014983 -0.013299)
 41:   1149.22   0.003881   19.61  0.001054  (-0.008189  0.025349  0.018554)
 42:   1238.48   0.001225    6.19  0.000309  ( 0.011329 -0.002598  0.013174)
 43:   1251.95   0.005737   28.99  0.001430  ( 0.025495  0.021380  0.017969)
 44:   1293.63   0.012123   61.26  0.002924  ( 0.044745 -0.029603 -0.006778)
 45:   1321.66   0.002987   15.09  0.000705  (-0.019179  0.004919 -0.017696)
 46:   1327.47   0.003258   16.47  0.000766  ( 0.003201  0.011394 -0.025018)
 47:   1344.49   0.001576    7.96  0.000366  ( 0.012402  0.008132  0.012074)
 48:   1372.08   0.002666   13.47  0.000606  (-0.015256 -0.018459  0.005737)
 49:   1387.53   0.002881   14.56  0.000648  ( 0.007497  0.017829  0.016548)
 50:   1428.31   0.018592   93.95  0.004062  ( 0.024950  0.057639 -0.010826)
 51:   1432.34   0.022739  114.92  0.004954  (-0.037550 -0.055936  0.020380)
 52:   1488.49   0.000842    4.26  0.000177  ( 0.006538 -0.008377  0.007976)
 53:   1491.38   0.004842   24.47  0.001013  (-0.012117 -0.003803  0.029189)
 54:   1492.61   0.002344   11.85  0.000490  ( 0.006236  0.021087  0.002567)
 55:   1547.95   0.038193  193.01  0.007700  (-0.087111 -0.002971  0.010123)
 56:   1574.15   0.018742   94.71  0.003715  ( 0.014783  0.046941  0.035964)
 57:   1584.70   0.042582  215.19  0.008385  ( 0.088519 -0.000896  0.023426)
 58:   1643.10   0.007809   39.46  0.001483  (-0.025151  0.027406 -0.009974)
 59:   1679.56   0.027601  139.48  0.005128  (-0.046433  0.044265  0.031824)
 60:   1758.08   0.027497  138.96  0.004881  ( 0.047712  0.038790 -0.033162)
 61:   1778.13   0.025127  126.98  0.004410  ( 0.032909  0.057622  0.002566)
 62:   1813.86   0.100638  508.58  0.017314  (-0.126515 -0.000956  0.036156)
 63:   2963.61   0.170014  859.18  0.017902  ( 0.032113 -0.047698 -0.120813)
 64:   3119.94   0.000757    3.83  0.000076  (-0.005674  0.004661  0.004669)
 65:   3133.34   0.000296    1.49  0.000029  ( 0.003405 -0.000415  0.004203)
 66:   3141.51   0.000278    1.41  0.000028  (-0.003238  0.004116  0.000477)
 67:   3184.88   0.000308    1.56  0.000030  ( 0.000241 -0.001166 -0.005365)
 68:   3206.32   0.000048    0.24  0.000005  (-0.001755 -0.000826  0.000940)
 69:   3209.72   0.000037    0.19  0.000004  (-0.001887 -0.000036 -0.000164)
 70:   3421.03   0.015130   76.46  0.001380  (-0.017755 -0.024678  0.021351)
 71:   3524.34   0.056797  287.03  0.005029  ( 0.065717 -0.022549  0.014208)
 72:   3555.34   0.024285  122.73  0.002132  ( 0.026656 -0.037304 -0.005428)
 73:   3642.63   0.012575   63.55  0.001077  ( 0.021620  0.013439 -0.020718)
 74:   3649.83   0.014331   72.42  0.001225  (-0.025434 -0.023937  0.002335)

--------------------------
THERMOCHEMISTRY AT 298.15K
--------------------------

Temperature         ... 298.15 K
Pressure            ... 1.00 atm
Total Mass          ... 190.18 AMU

Throughout the following assumptions are being made:
  (1) The electronic state is orbitally nondegenerate
  (2) There are no thermally accessible electronically excited states
  (3) Hindered rotations indicated by low frequency modes are not
      treated as such but are treated as vibrations and this may
      cause some error
  (4) All equations used are the standard statistical mechanics
      equations for an ideal gas
  (5) All vibrations are strictly harmonic

freq.      54.59  E(vib)   ...       0.52
freq.      91.10  E(vib)   ...       0.47
freq.     114.37  E(vib)   ...       0.44
freq.     121.47  E(vib)   ...       0.44
freq.     139.91  E(vib)   ...       0.41
freq.     193.50  E(vib)   ...       0.36
freq.     199.62  E(vib)   ...       0.35
freq.     224.31  E(vib)   ...       0.33
freq.     263.20  E(vib)   ...       0.29
freq.     285.10  E(vib)   ...       0.28
freq.     300.30  E(vib)   ...       0.26
freq.     337.35  E(vib)   ...       0.24
freq.     374.50  E(vib)   ...       0.21
freq.     423.53  E(vib)   ...       0.18
freq.     444.69  E(vib)   ...       0.17
freq.     468.72  E(vib)   ...       0.16
freq.     555.14  E(vib)   ...       0.12
freq.     589.68  E(vib)   ...       0.10
freq.     622.72  E(vib)   ...       0.09
freq.     641.04  E(vib)   ...       0.09
freq.     676.54  E(vib)   ...       0.08
freq.     696.30  E(vib)   ...       0.07
freq.     775.89  E(vib)   ...       0.05
freq.     806.00  E(vib)   ...       0.05
freq.     821.05  E(vib)   ...       0.05
freq.     871.14  E(vib)   ...       0.04
freq.     896.70  E(vib)   ...       0.03
freq.     924.23  E(vib)   ...       0.03
freq.     941.05  E(vib)   ...       0.03
freq.    1004.29  E(vib)   ...       0.02
freq.    1020.44  E(vib)   ...       0.02
freq.    1050.82  E(vib)   ...       0.02
freq.    1069.04  E(vib)   ...       0.02
freq.    1107.98  E(vib)   ...       0.02
freq.    1135.41  E(vib)   ...       0.01
freq.    1149.22  E(vib)   ...       0.01
freq.    1238.48  E(vib)   ...       0.01
freq.    1251.95  E(vib)   ...       0.01
freq.    1293.63  E(vib)   ...       0.01
freq.    1321.66  E(vib)   ...       0.01
freq.    1327.47  E(vib)   ...       0.01
freq.    1344.49  E(vib)   ...       0.01
freq.    1372.08  E(vib)   ...       0.01
freq.    1387.53  E(vib)   ...       0.00
freq.    1428.31  E(vib)   ...       0.00
freq.    1432.34  E(vib)   ...       0.00
freq.    1488.49  E(vib)   ...       0.00
freq.    1491.38  E(vib)   ...       0.00
freq.    1492.61  E(vib)   ...       0.00
freq.    1547.95  E(vib)   ...       0.00
freq.    1574.15  E(vib)   ...       0.00
freq.    1584.70  E(vib)   ...       0.00
freq.    1643.10  E(vib)   ...       0.00
freq.    1679.56  E(vib)   ...       0.00
freq.    1758.08  E(vib)   ...       0.00
freq.    1778.13  E(vib)   ...       0.00
freq.    1813.86  E(vib)   ...       0.00
freq.    2963.61  E(vib)   ...       0.00
freq.    3119.94  E(vib)   ...       0.00
freq.    3133.34  E(vib)   ...       0.00
freq.    3141.51  E(vib)   ...       0.00
freq.    3184.88  E(vib)   ...       0.00
freq.    3206.32  E(vib)   ...       0.00
freq.    3209.72  E(vib)   ...       0.00
freq.    3421.03  E(vib)   ...       0.00
freq.    3524.34  E(vib)   ...       0.00
freq.    3555.34  E(vib)   ...       0.00
freq.    3642.63  E(vib)   ...       0.00
freq.    3649.83  E(vib)   ...       0.00

------------
INNER ENERGY
------------

The inner energy is: U= E(el) + E(ZPE) + E(vib) + E(rot) + E(trans)
    E(el)   - is the total energy from the electronic structure calculation
              = E(kin-el) + E(nuc-el) + E(el-el) + E(nuc-nuc)
    E(ZPE)  - the the zero temperature vibrational energy from the frequency calculation
    E(vib)  - the the finite temperature correction to E(ZPE) due to population
              of excited vibrational states
    E(rot)  - is the rotational thermal energy
    E(trans)- is the translational thermal energy

Summary of contributions to the inner energy U:
Electronic energy                ...   -701.35083189 Eh
Zero point energy                ...      0.21048759 Eh     132.08 kcal/mol
Thermal vibrational correction   ...      0.00978759 Eh       6.14 kcal/mol
Thermal rotational correction    ...      0.00141627 Eh       0.89 kcal/mol
Thermal translational correction ...      0.00141627 Eh       0.89 kcal/mol
-----------------------------------------------------------------------
Total thermal energy                   -701.12772417 Eh

Summary of corrections to the electronic energy:
(perhaps to be used in another calculation)
Total thermal correction                  0.01262013 Eh       7.92 kcal/mol
Non-thermal (ZPE) correction              0.21048759 Eh     132.08 kcal/mol
-----------------------------------------------------------------------
Total correction                          0.22310772 Eh     140.00 kcal/mol

--------
ENTHALPY
--------

The enthalpy is H = U + kB*T
                kB is Boltzmann's constant
Total free energy                 ...   -701.12772417 Eh
Thermal Enthalpy correction       ...      0.00094421 Eh       0.59 kcal/mol
-----------------------------------------------------------------------
Total Enthalpy                    ...   -701.12677996 Eh

Note: Only C1 symmetry has been detected, increase convergence thresholds
      if your molecule has a higher symmetry. Symmetry factor of 1.0 is
      used for the rotational entropy correction.

Note: Rotational entropy computed according to Herzberg
Infrared and Raman Spectra, Chapter V,1, Van Nostrand Reinhold, 1945
Point Group:  C1, Symmetry Number:   1
Rotational constants in cm-1:     0.034018     0.027579     0.019803

Vibrational entropy computed according to the QRRHO of S. Grimme
Chem.Eur.J. 2012 18 9955

-------
ENTROPY
-------

The entropy contributions are T*S = T*(S(el)+S(vib)+S(rot)+S(trans))
     S(el)   - electronic entropy
     S(vib)  - vibrational entropy
     S(rot)  - rotational entropy
     S(trans)- translational entropy
The entropies will be listed as multiplied by the temperature to get
units of energy

Electronic entropy                ...      0.00000000 Eh      0.00 kcal/mol
Vibrational entropy               ...      0.01686008 Eh     10.58 kcal/mol
Rotational entropy                ...      0.01465353 Eh      9.20 kcal/mol
Translational entropy             ...      0.01978162 Eh     12.41 kcal/mol
-----------------------------------------------------------------------

                             ****ORCA TERMINATED NORMALLY****
TOTAL RUN TIME: 0 days 1 hours 43 minutes 46 seconds 862 msec
