                         Program Version 5.0.2 -  RELEASE  -
|  1> # GGG-H_tt_003 (old 020)
|  2> ! wB97X-D3BJ Opt Freq def2-TZVPP def2/J RIJCOSX VeryTightSCF
|  3> ! PAL8 defgrid3 VeryTightOpt
|  4>
|  5> %maxcore 4096
|  6>
|  7> %geom
|  8>   MaxIter 300
|  9>   # MaxStep 0.1
| 10>   Calc_Hess true
| 11>   Recalc_Hess 10
| 12> end
| 13>
| 14> %chelpg
| 15>   grid 0.1
| 16>   rmax 3.0
| 17> end
| 18>
| 19> * xyz 1 1
| 20>  N   -0.336985   +0.902908   -2.654133
| 21>  H   -0.665612   -0.039271   -2.446266
| 22>  C   +0.534739   +1.050916   -3.824515
| 23>  C   +1.944685   +0.779891   -3.292617
| 24>  H   +0.265994   +0.303874   -4.582895
| 25>  H   +0.430096   +2.065775   -4.237925
| 26>  O   +2.391306   -0.368731   -3.202568
| 27>  C   -0.225368   +1.804797   -1.623066
| 28>  C   -0.697217   +1.274645   -0.249513
| 29>  O   +0.313942   +2.898242   -1.775715
| 30>  N   +0.000000   +0.000000   +0.000000
| 31>  H   -1.782529   +1.092140   -0.220888
| 32>  H   -0.425959   +2.027393   +0.504706
| 33>  H   -0.525924   -0.871010   +0.063129
| 34>  C   +1.356678   +0.000000   +0.000000
| 35>  C   +2.117976   -1.337648   -0.112761
| 36>  O   +2.023324   +1.035552   +0.000000
| 37>  H   +1.591950   -2.096703   -0.710330
| 38>  H   +2.351261   -1.746880   +0.883947
| 39>  O   +2.609452   +1.804626   -2.778937
| 40>  H   +1.991112   +2.573028   -2.637918
| 41>  N   +3.390563   -0.956165   -0.804221
| 42>  H   +3.190273   -0.769728   -1.852204
| 43>  H   +3.648410   -0.021061   -0.413139
| 44>  H   +4.152749   -1.636636   -0.685029
| 45> *
| 46>
| 47>                          ****END OF INPUT****
 Total Charge           Charge          ....    1
 Multiplicity           Mult            ....    1
 Number of Electrons    NEL             ....  100
Dispersion correction           -0.047675032
FINAL SINGLE POINT ENERGY      -701.339840184834
Dispersion correction            ... done
Dispersion correction in the Hessian             ... done   (      0.7 sec)
Dispersion correction           -0.047626514
FINAL SINGLE POINT ENERGY      -701.343917396490
Dispersion correction            ... done
Dispersion correction           -0.047524927
FINAL SINGLE POINT ENERGY      -701.344141998707
FINAL SINGLE POINT ENERGY      -701.344307035339
FINAL SINGLE POINT ENERGY      -701.344359393154
FINAL SINGLE POINT ENERGY      -701.344393978138
FINAL SINGLE POINT ENERGY      -701.344399976670
FINAL SINGLE POINT ENERGY      -701.344403460491
FINAL SINGLE POINT ENERGY      -701.344405141275
FINAL SINGLE POINT ENERGY      -701.344405648877
Dispersion correction            ... done
Dispersion correction           -0.047197968
FINAL SINGLE POINT ENERGY      -701.344405758135
Dispersion correction            ... done
Dispersion correction in the Hessian             ... done   (      0.7 sec)
                    ***********************HURRAY********************

CARTESIAN COORDINATES (ANGSTROEM)
---------------------------------
  N     -0.352905    0.897787   -2.642631
  H     -0.580926   -0.058853   -2.434380
  C      0.513671    1.111829   -3.788919
  C      1.934566    0.837738   -3.306674
  H      0.265465    0.402158   -4.574960
  H      0.388252    2.126634   -4.161361
  O      2.318908   -0.303378   -3.109003
  C     -0.290509    1.790609   -1.603175
  C     -0.712681    1.223216   -0.239965
  O      0.125221    2.917328   -1.746295
  N      0.012076   -0.024197    0.008486
  H     -1.782020    1.014955   -0.214193
  H     -0.470501    1.971636    0.511443
  H     -0.485528   -0.895112    0.079899
  C      1.357350   -0.003375   -0.029239
  C      2.111895   -1.336309   -0.078066
  O      2.009354    1.022631   -0.085550
  H      1.597114   -2.097004   -0.661906
  H      2.307864   -1.710032    0.927112
  O      2.708170    1.860855   -3.004249
  H      2.208555    2.690480   -3.004025
  N      3.403567   -1.007627   -0.745728
  H      3.214185   -0.784526   -1.756718
  H      3.746035   -0.131653   -0.334250
  H      4.097740   -1.745835   -0.658513

 Multiplicity           Mult            ....    1
 Number of Electrons    NEL             ....  100
 Basis Dimension        Dim             ....  571

ORBITAL ENERGIES
----------------

  NO   OCC          E(Eh)            E(eV)
   0   2.0000     -19.410484      -528.1861
   1   2.0000     -19.361322      -526.8484
   2   2.0000     -19.354466      -526.6618
   3   2.0000     -19.323387      -525.8161
   4   2.0000     -14.688061      -399.6825
   5   2.0000     -14.610439      -397.5703
   6   2.0000     -14.582582      -396.8122
   7   2.0000     -10.565211      -287.4940
   8   2.0000     -10.553059      -287.1633
   9   2.0000     -10.518436      -286.2212
  10   2.0000     -10.514775      -286.1216
  11   2.0000     -10.464756      -284.7605
  12   2.0000     -10.464406      -284.7510
  13   2.0000      -1.398655       -38.0593
  14   2.0000      -1.361063       -37.0364
  15   2.0000      -1.321368       -35.9563
  16   2.0000      -1.310444       -35.6590
  17   2.0000      -1.291972       -35.1563
  18   2.0000      -1.233216       -33.5575
  19   2.0000      -1.205154       -32.7939
  20   2.0000      -1.064629       -28.9700
  21   2.0000      -1.025217       -27.8976
  22   2.0000      -0.986245       -26.8371
  23   2.0000      -0.898759       -24.4565
  24   2.0000      -0.887992       -24.1635
  25   2.0000      -0.884412       -24.0661
  26   2.0000      -0.865072       -23.5398
  27   2.0000      -0.851957       -23.1829
  28   2.0000      -0.813805       -22.1448
  29   2.0000      -0.810064       -22.0430
  30   2.0000      -0.777800       -21.1650
  31   2.0000      -0.772246       -21.0139
  32   2.0000      -0.754851       -20.5405
  33   2.0000      -0.738552       -20.0970
  34   2.0000      -0.735788       -20.0218
  35   2.0000      -0.724318       -19.7097
  36   2.0000      -0.703122       -19.1329
  37   2.0000      -0.690204       -18.7814
  38   2.0000      -0.678238       -18.4558
  39   2.0000      -0.670100       -18.2343
  40   2.0000      -0.663947       -18.0669
  41   2.0000      -0.648990       -17.6599
  42   2.0000      -0.635962       -17.3054
  43   2.0000      -0.630051       -17.1446
  44   2.0000      -0.584341       -15.9007
  45   2.0000      -0.562346       -15.3022
  46   2.0000      -0.548903       -14.9364
  47   2.0000      -0.545526       -14.8445
  48   2.0000      -0.505590       -13.7578
  49   2.0000      -0.502201       -13.6656
  50   0.0000      -0.078437        -2.1344
  51   0.0000      -0.069077        -1.8797
  52   0.0000      -0.060489        -1.6460
  53   0.0000      -0.046154        -1.2559
  54   0.0000      -0.037231        -1.0131

MULLIKEN ATOMIC CHARGES
-----------------------
   0 N :   -0.183730
   1 H :    0.168270
   2 C :   -0.126465
   3 C :    0.354075
   4 H :    0.146547
   5 H :    0.144914
   6 O :   -0.396431
   7 C :    0.248873
   8 C :   -0.076556
   9 O :   -0.330614
  10 N :   -0.228906
  11 H :    0.151279
  12 H :    0.151948
  13 H :    0.195470
  14 C :    0.222963
  15 C :   -0.152484
  16 O :   -0.338284
  17 H :    0.161463
  18 H :    0.178300
  19 O :   -0.194614
  20 H :    0.260873
  21 N :   -0.061572
  22 H :    0.239010
  23 H :    0.236694
  24 H :    0.228977
Sum of atomic charges:    1.0000000

LOEWDIN ATOMIC CHARGES
----------------------
   0 N :    0.317503
   1 H :   -0.031560
   2 C :   -0.034259
   3 C :   -0.409448
   4 H :    0.040625
   5 H :    0.034430
   6 O :    0.126870
   7 C :   -0.388172
   8 C :   -0.009286
   9 O :    0.119327
  10 N :    0.333168
  11 H :    0.035489
  12 H :    0.043686
  13 H :   -0.020721
  14 C :   -0.404955
  15 C :    0.030510
  16 O :    0.127556
  17 H :    0.033090
  18 H :    0.038768
  19 O :    0.421709
  20 H :   -0.070196
  21 N :    0.602834
  22 H :   -0.020894
  23 H :    0.042783
  24 H :    0.041141

  Mayer bond orders larger than 0.100000
B(  0-N ,  1-H ) :   0.9708 B(  0-N ,  2-C ) :   0.9157 B(  0-N ,  7-C ) :   1.1786
B(  2-C ,  3-C ) :   0.9234 B(  2-C ,  4-H ) :   0.9853 B(  2-C ,  5-H ) :   1.0008
B(  3-C ,  6-O ) :   1.8529 B(  3-C , 19-O ) :   1.3136 B(  6-O , 22-H ) :   0.1828
B(  7-C ,  8-C ) :   0.9158 B(  7-C ,  9-O ) :   2.0466 B(  8-C , 10-N ) :   0.8844
B(  8-C , 11-H ) :   0.9830 B(  8-C , 12-H ) :   0.9858 B( 10-N , 13-H ) :   0.9611
B( 10-N , 14-C ) :   1.2889 B( 14-C , 15-C ) :   0.9255 B( 14-C , 16-O ) :   1.9704
B( 15-C , 17-H ) :   0.9900 B( 15-C , 18-H ) :   0.9755 B( 15-C , 21-N ) :   0.8998
B( 19-O , 20-H ) :   0.9351 B( 21-N , 22-H ) :   0.8449 B( 21-N , 23-H ) :   0.9068
B( 21-N , 24-H ) :   0.9395

Dispersion correction           -0.047194661
FINAL SINGLE POINT ENERGY      -701.344405937637

DIPOLE MOMENT
-------------
                                X             Y             Z
Electronic contribution:      0.63475       3.75783      -1.47896
Nuclear contribution   :     -0.04191      -6.95560       2.43863
                        -----------------------------------------
Total Dipole Moment    :      0.59284      -3.19777       0.95967
                        -----------------------------------------
Magnitude (a.u.)       :      3.39089
Magnitude (Debye)      :      8.61895

Dispersion correction in the Hessian             ... done   (      0.8 sec)

VIBRATIONAL FREQUENCIES
-----------------------

Scaling factor for frequencies =  1.000000000  (already applied!)

   0:         0.00 cm**-1
   1:         0.00 cm**-1
   2:         0.00 cm**-1
   3:         0.00 cm**-1
   4:         0.00 cm**-1
   5:         0.00 cm**-1
   6:        46.14 cm**-1
   7:        65.84 cm**-1
   8:        83.66 cm**-1
   9:       109.41 cm**-1
  10:       123.67 cm**-1
  11:       130.63 cm**-1
  12:       194.58 cm**-1
  13:       227.74 cm**-1
  14:       245.63 cm**-1
  15:       296.80 cm**-1
  16:       317.31 cm**-1
  17:       329.43 cm**-1
  18:       386.55 cm**-1
  19:       416.83 cm**-1
  20:       437.74 cm**-1
  21:       452.77 cm**-1
  22:       479.47 cm**-1
  23:       526.72 cm**-1
  24:       571.76 cm**-1
  25:       625.94 cm**-1
  26:       633.40 cm**-1
  27:       639.55 cm**-1
  28:       699.81 cm**-1
  29:       742.31 cm**-1
  30:       795.99 cm**-1
  31:       868.11 cm**-1
  32:       883.68 cm**-1
  33:       927.42 cm**-1
  34:       938.94 cm**-1
  35:      1009.44 cm**-1
  36:      1034.37 cm**-1
  37:      1051.16 cm**-1
  38:      1076.86 cm**-1
  39:      1121.23 cm**-1
  40:      1134.55 cm**-1
  41:      1147.94 cm**-1
  42:      1228.67 cm**-1
  43:      1257.14 cm**-1
  44:      1270.07 cm**-1
  45:      1289.88 cm**-1
  46:      1319.96 cm**-1
  47:      1342.29 cm**-1
  48:      1363.64 cm**-1
  49:      1366.14 cm**-1
  50:      1419.03 cm**-1
  51:      1435.19 cm**-1
  52:      1479.27 cm**-1
  53:      1487.95 cm**-1
  54:      1493.00 cm**-1
  55:      1539.88 cm**-1
  56:      1548.03 cm**-1
  57:      1573.01 cm**-1
  58:      1618.96 cm**-1
  59:      1693.17 cm**-1
  60:      1785.16 cm**-1
  61:      1790.40 cm**-1
  62:      1822.41 cm**-1
  63:      2951.53 cm**-1
  64:      3120.17 cm**-1
  65:      3124.08 cm**-1
  66:      3131.39 cm**-1
  67:      3184.98 cm**-1
  68:      3188.10 cm**-1
  69:      3193.74 cm**-1
  70:      3415.18 cm**-1
  71:      3560.09 cm**-1
  72:      3676.60 cm**-1
  73:      3679.23 cm**-1
  74:      3773.82 cm**-1

IR SPECTRUM
-----------

 Mode   freq       eps      Int      T**2         TX        TY        TZ
       cm**-1   L/(mol*cm) km/mol    a.u.
----------------------------------------------------------------------------
  6:     46.14   0.003100   15.66  0.020966  ( 0.144260 -0.000444 -0.012434)
  7:     65.84   0.003147   15.90  0.014917  (-0.048377 -0.073656  0.084567)
  8:     83.66   0.001675    8.47  0.006248  ( 0.043439  0.007963  0.065557)
  9:    109.41   0.001579    7.98  0.004505  ( 0.054575 -0.037293  0.011634)
 10:    123.67   0.002243   11.33  0.005659  (-0.042766 -0.009725  0.061118)
 11:    130.63   0.000181    0.92  0.000433  (-0.001936  0.019164  0.007871)
 12:    194.58   0.005264   26.60  0.008443  ( 0.013104 -0.019257  0.088882)
 13:    227.74   0.002625   13.27  0.003597  ( 0.029530  0.051372 -0.009259)
 14:    245.63   0.006610   33.40  0.008397  ( 0.003694 -0.002141 -0.091538)
 15:    296.80   0.003040   15.36  0.003196  ( 0.038797 -0.021241 -0.035209)
 16:    317.31   0.008707   44.00  0.008563  (-0.052968  0.035576 -0.067020)
 17:    329.43   0.002192   11.08  0.002076  (-0.017276 -0.004097  0.041964)
 18:    386.55   0.006647   33.59  0.005366  (-0.031618  0.028171  0.059770)
 19:    416.83   0.006529   32.99  0.004888  ( 0.054189 -0.044012 -0.003762)
 20:    437.74   0.021848  110.41  0.015575  ( 0.036802 -0.024345  0.116740)
 21:    452.77   0.003411   17.24  0.002351  (-0.041809  0.018039 -0.016660)
 22:    479.47   0.000255    1.29  0.000166  ( 0.008578  0.006152  0.007395)
 23:    526.72   0.018929   95.66  0.011215  ( 0.100572  0.033040  0.002950)
 24:    571.76   0.022180  112.09  0.012106  ( 0.007329  0.049913 -0.097779)
 25:    625.94   0.006747   34.10  0.003364  ( 0.013254  0.007377 -0.055978)
 26:    633.40   0.006434   32.51  0.003170  ( 0.053469  0.015173  0.008984)
 27:    639.55   0.000856    4.33  0.000418  (-0.007151  0.011298  0.015462)
 28:    699.81   0.000235    1.19  0.000105  (-0.004655  0.000141  0.009106)
 29:    742.31   0.001759    8.89  0.000739  ( 0.006419  0.001876  0.026354)
 30:    795.99   0.001509    7.63  0.000592  ( 0.010392 -0.016383 -0.014668)
 31:    868.11   0.001136    5.74  0.000408  (-0.009388  0.013901  0.011262)
 32:    883.68   0.001015    5.13  0.000358  ( 0.014889 -0.011107  0.003664)
 33:    927.42   0.002792   14.11  0.000940  (-0.023734 -0.013293 -0.014129)
 34:    938.94   0.005614   28.37  0.001866  (-0.000113 -0.010862  0.041807)
 35:   1009.44   0.000984    4.97  0.000304  (-0.016070  0.006018  0.003125)
 36:   1034.37   0.002635   13.32  0.000795  ( 0.012885 -0.021562  0.012809)
 37:   1051.16   0.000478    2.42  0.000142  (-0.008653  0.002639 -0.007748)
 38:   1076.86   0.002469   12.48  0.000716  (-0.004718  0.026191 -0.002718)
 39:   1121.23   0.001974    9.97  0.000549  ( 0.018318 -0.005246 -0.013649)
 40:   1134.55   0.001057    5.34  0.000291  ( 0.009373  0.008916  0.011104)
 41:   1147.94   0.005603   28.32  0.001523  ( 0.005204 -0.030830  0.023359)
 42:   1228.67   0.001769    8.94  0.000449  (-0.000983  0.015824  0.014068)
 43:   1257.14   0.006710   33.91  0.001666  (-0.015251 -0.010797  0.036285)
 44:   1270.07   0.008095   40.91  0.001989  ( 0.022765 -0.032163  0.020888)
 45:   1289.88   0.019003   96.03  0.004597  (-0.038342 -0.055075 -0.009700)
 46:   1319.96   0.011184   56.52  0.002644  (-0.028347  0.024527  0.035199)
 47:   1342.29   0.001711    8.65  0.000398  ( 0.000833 -0.004245 -0.019471)
 48:   1363.64   0.010095   51.01  0.002310  ( 0.016212  0.040973  0.019197)
 49:   1366.14   0.004685   23.68  0.001070  (-0.030942 -0.010542  0.001331)
 50:   1419.03   0.002008   10.15  0.000442  (-0.009298 -0.018847  0.000071)
 51:   1435.19   0.027140  137.15  0.005901  (-0.052616 -0.055654  0.005951)
 52:   1479.27   0.004151   20.98  0.000876  ( 0.006477  0.015585  0.024309)
 53:   1487.95   0.002206   11.15  0.000463  (-0.008230  0.016869 -0.010510)
 54:   1493.00   0.003241   16.38  0.000677  (-0.009752 -0.024036  0.002152)
 55:   1539.88   0.049499  250.15  0.010031  ( 0.099772  0.003487  0.008039)
 56:   1548.03   0.033597  169.78  0.006773  ( 0.002231 -0.038773 -0.072556)
 57:   1573.01   0.031130  157.32  0.006176  ( 0.072314 -0.030243 -0.005642)
 58:   1618.96   0.009710   49.07  0.001872  (-0.021957  0.037264  0.000939)
 59:   1693.17   0.023339  117.95  0.004302  (-0.037334  0.048971 -0.022576)
 60:   1785.16   0.013987   70.69  0.002445  (-0.040060 -0.026763  0.011140)
 61:   1790.40   0.052265  264.13  0.009110  (-0.053941  0.073692 -0.027740)
 62:   1822.41   0.073128  369.56  0.012522  (-0.030555 -0.107643  0.001241)
 63:   2951.53   0.179151  905.36  0.018941  (-0.038677  0.054880 -0.120140)
 64:   3120.17   0.000838    4.23  0.000084  (-0.006886  0.003242 -0.005085)
 65:   3124.08   0.000396    2.00  0.000040  (-0.005513  0.001764 -0.002454)
 66:   3131.39   0.000711    3.59  0.000071  (-0.003846 -0.000158  0.007486)
 67:   3184.98   0.000131    0.66  0.000013  ( 0.000432  0.001548 -0.003195)
 68:   3188.10   0.000056    0.28  0.000006  (-0.002261 -0.000378  0.000507)
 69:   3193.74   0.000037    0.19  0.000004  ( 0.000254  0.000271  0.001859)
 70:   3415.18   0.014085   71.18  0.001287  ( 0.014472  0.026448  0.019445)
 71:   3560.09   0.024890  125.79  0.002182  (-0.028978  0.036452 -0.003651)
 72:   3676.60   0.012058   60.94  0.001023  ( 0.023906  0.020558 -0.005414)
 73:   3679.23   0.007470   37.75  0.000634  (-0.009349 -0.023371  0.000150)
 74:   3773.82   0.026608  134.47  0.002200  (-0.013357  0.044728  0.004611)

--------------------------
THERMOCHEMISTRY AT 298.15K
--------------------------

Temperature         ... 298.15 K
Pressure            ... 1.00 atm
Total Mass          ... 190.18 AMU

Throughout the following assumptions are being made:
  (1) The electronic state is orbitally nondegenerate
  (2) There are no thermally accessible electronically excited states
  (3) Hindered rotations indicated by low frequency modes are not
      treated as such but are treated as vibrations and this may
      cause some error
  (4) All equations used are the standard statistical mechanics
      equations for an ideal gas
  (5) All vibrations are strictly harmonic

freq.      46.14  E(vib)   ...       0.53
freq.      65.84  E(vib)   ...       0.50
freq.      83.66  E(vib)   ...       0.48
freq.     109.41  E(vib)   ...       0.45
freq.     123.67  E(vib)   ...       0.43
freq.     130.63  E(vib)   ...       0.43
freq.     194.58  E(vib)   ...       0.36
freq.     227.74  E(vib)   ...       0.33
freq.     245.63  E(vib)   ...       0.31
freq.     296.80  E(vib)   ...       0.27
freq.     317.31  E(vib)   ...       0.25
freq.     329.43  E(vib)   ...       0.24
freq.     386.55  E(vib)   ...       0.20
freq.     416.83  E(vib)   ...       0.18
freq.     437.74  E(vib)   ...       0.17
freq.     452.77  E(vib)   ...       0.16
freq.     479.47  E(vib)   ...       0.15
freq.     526.72  E(vib)   ...       0.13
freq.     571.76  E(vib)   ...       0.11
freq.     625.94  E(vib)   ...       0.09
freq.     633.40  E(vib)   ...       0.09
freq.     639.55  E(vib)   ...       0.09
freq.     699.81  E(vib)   ...       0.07
freq.     742.31  E(vib)   ...       0.06
freq.     795.99  E(vib)   ...       0.05
freq.     868.11  E(vib)   ...       0.04
freq.     883.68  E(vib)   ...       0.04
freq.     927.42  E(vib)   ...       0.03
freq.     938.94  E(vib)   ...       0.03
freq.    1009.44  E(vib)   ...       0.02
freq.    1034.37  E(vib)   ...       0.02
freq.    1051.16  E(vib)   ...       0.02
freq.    1076.86  E(vib)   ...       0.02
freq.    1121.23  E(vib)   ...       0.01
freq.    1134.55  E(vib)   ...       0.01
freq.    1147.94  E(vib)   ...       0.01
freq.    1228.67  E(vib)   ...       0.01
freq.    1257.14  E(vib)   ...       0.01
freq.    1270.07  E(vib)   ...       0.01
freq.    1289.88  E(vib)   ...       0.01
freq.    1319.96  E(vib)   ...       0.01
freq.    1342.29  E(vib)   ...       0.01
freq.    1363.64  E(vib)   ...       0.01
freq.    1366.14  E(vib)   ...       0.01
freq.    1419.03  E(vib)   ...       0.00
freq.    1435.19  E(vib)   ...       0.00
freq.    1479.27  E(vib)   ...       0.00
freq.    1487.95  E(vib)   ...       0.00
freq.    1493.00  E(vib)   ...       0.00
freq.    1539.88  E(vib)   ...       0.00
freq.    1548.03  E(vib)   ...       0.00
freq.    1573.01  E(vib)   ...       0.00
freq.    1618.96  E(vib)   ...       0.00
freq.    1693.17  E(vib)   ...       0.00
freq.    1785.16  E(vib)   ...       0.00
freq.    1790.40  E(vib)   ...       0.00
freq.    1822.41  E(vib)   ...       0.00
freq.    2951.53  E(vib)   ...       0.00
freq.    3120.17  E(vib)   ...       0.00
freq.    3124.08  E(vib)   ...       0.00
freq.    3131.39  E(vib)   ...       0.00
freq.    3184.98  E(vib)   ...       0.00
freq.    3188.10  E(vib)   ...       0.00
freq.    3193.74  E(vib)   ...       0.00
freq.    3415.18  E(vib)   ...       0.00
freq.    3560.09  E(vib)   ...       0.00
freq.    3676.60  E(vib)   ...       0.00
freq.    3679.23  E(vib)   ...       0.00
freq.    3773.82  E(vib)   ...       0.00

------------
INNER ENERGY
------------

The inner energy is: U= E(el) + E(ZPE) + E(vib) + E(rot) + E(trans)
    E(el)   - is the total energy from the electronic structure calculation
              = E(kin-el) + E(nuc-el) + E(el-el) + E(nuc-nuc)
    E(ZPE)  - the the zero temperature vibrational energy from the frequency calculation
    E(vib)  - the the finite temperature correction to E(ZPE) due to population
              of excited vibrational states
    E(rot)  - is the rotational thermal energy
    E(trans)- is the translational thermal energy

Summary of contributions to the inner energy U:
Electronic energy                ...   -701.34440594 Eh
Zero point energy                ...      0.20935344 Eh     131.37 kcal/mol
Thermal vibrational correction   ...      0.01031872 Eh       6.48 kcal/mol
Thermal rotational correction    ...      0.00141627 Eh       0.89 kcal/mol
Thermal translational correction ...      0.00141627 Eh       0.89 kcal/mol
-----------------------------------------------------------------------
Total thermal energy                   -701.12190124 Eh

Summary of corrections to the electronic energy:
(perhaps to be used in another calculation)
Total thermal correction                  0.01315126 Eh       8.25 kcal/mol
Non-thermal (ZPE) correction              0.20935344 Eh     131.37 kcal/mol
-----------------------------------------------------------------------
Total correction                          0.22250470 Eh     139.62 kcal/mol

--------
ENTHALPY
--------

The enthalpy is H = U + kB*T
                kB is Boltzmann's constant
Total free energy                 ...   -701.12190124 Eh
Thermal Enthalpy correction       ...      0.00094421 Eh       0.59 kcal/mol
-----------------------------------------------------------------------
Total Enthalpy                    ...   -701.12095703 Eh

Note: Only C1 symmetry has been detected, increase convergence thresholds
      if your molecule has a higher symmetry. Symmetry factor of 1.0 is
      used for the rotational entropy correction.

Note: Rotational entropy computed according to Herzberg
Infrared and Raman Spectra, Chapter V,1, Van Nostrand Reinhold, 1945
Point Group:  C1, Symmetry Number:   1
Rotational constants in cm-1:     0.033279     0.027647     0.019385

Vibrational entropy computed according to the QRRHO of S. Grimme
Chem.Eur.J. 2012 18 9955

-------
ENTROPY
-------

The entropy contributions are T*S = T*(S(el)+S(vib)+S(rot)+S(trans))
     S(el)   - electronic entropy
     S(vib)  - vibrational entropy
     S(rot)  - rotational entropy
     S(trans)- translational entropy
The entropies will be listed as multiplied by the temperature to get
units of energy

Electronic entropy                ...      0.00000000 Eh      0.00 kcal/mol
Vibrational entropy               ...      0.01796704 Eh     11.27 kcal/mol
Rotational entropy                ...      0.01467279 Eh      9.21 kcal/mol
Translational entropy             ...      0.01978162 Eh     12.41 kcal/mol
-----------------------------------------------------------------------

                             ****ORCA TERMINATED NORMALLY****
TOTAL RUN TIME: 0 days 2 hours 33 minutes 51 seconds 38 msec
