                         Program Version 5.0.2 -  RELEASE  -
|  1> # GGG-H_tt_009 (old 044)
|  2> ! wB97X-D3BJ Opt Freq def2-TZVPP def2/J RIJCOSX VeryTightSCF
|  3> ! PAL8 defgrid3 VeryTightOpt
|  4>
|  5> %maxcore 4096
|  6>
|  7> %geom
|  8>   MaxIter 300
|  9>   # MaxStep 0.1
| 10>   Calc_Hess true
| 11>   Recalc_Hess 10
| 12> end
| 13>
| 14> %chelpg
| 15>   grid 0.1
| 16>   rmax 3.0
| 17> end
| 18>
| 19> * xyz 1 1
| 20>  N   +0.471621   +1.861700   -2.347448
| 21>  H   +1.205727   +2.102531   -1.678231
| 22>  C   +0.813500   +1.694079   -3.736368
| 23>  C   +1.774650   +0.533265   -3.968804
| 24>  H   -0.120421   +1.480123   -4.287872
| 25>  H   +1.254115   +2.606929   -4.174979
| 26>  O   +2.178775   -0.237249   -3.097465
| 27>  C   -0.713079   +1.355311   -1.860155
| 28>  C   -0.745139   +1.229612   -0.322720
| 29>  O   -1.613989   +0.932184   -2.568907
| 30>  N   +0.000000   +0.000000   +0.000000
| 31>  H   -1.783770   +1.122713   +0.014920
| 32>  H   -0.260943   +2.074993   +0.189286
| 33>  H   -0.494553   -0.884281   -0.124142
| 34>  C   +1.343444   +0.000000   +0.000000
| 35>  C   +2.067573   -1.358084   -0.060273
| 36>  O   +2.051035   +1.019301   +0.000000
| 37>  H   +2.321404   -1.721867   +0.948672
| 38>  H   +1.513286   -2.132456   -0.610052
| 39>  O   +2.132677   +0.440990   -5.245681
| 40>  H   +2.734022   -0.326276   -5.360949
| 41>  N   +3.330282   -1.027488   -0.793890
| 42>  H   +4.089202   -1.710809   -0.671211
| 43>  H   +3.096371   -0.872627   -1.811818
| 44>  H   +3.590703   -0.077415   -0.430644
| 45> *
| 46>
| 47>                          ****END OF INPUT****
 Total Charge           Charge          ....    1
 Multiplicity           Mult            ....    1
 Number of Electrons    NEL             ....  100
Dispersion correction           -0.044361257
FINAL SINGLE POINT ENERGY      -701.350684275254
Dispersion correction            ... done
Dispersion correction in the Hessian             ... done   (      0.7 sec)
Dispersion correction           -0.044596612
FINAL SINGLE POINT ENERGY      -701.354292690491
Dispersion correction            ... done
Dispersion correction           -0.044570281
FINAL SINGLE POINT ENERGY      -701.354497438315
FINAL SINGLE POINT ENERGY      -701.354710454679
FINAL SINGLE POINT ENERGY      -701.354850074212
FINAL SINGLE POINT ENERGY      -701.354949748519
FINAL SINGLE POINT ENERGY      -701.354996569959
FINAL SINGLE POINT ENERGY      -701.355007999265
FINAL SINGLE POINT ENERGY      -701.355013078956
FINAL SINGLE POINT ENERGY      -701.355014858936
FINAL SINGLE POINT ENERGY      -701.355015867018
Dispersion correction            ... done
Dispersion correction in the Hessian             ... done   (      0.7 sec)
Dispersion correction           -0.044921811
FINAL SINGLE POINT ENERGY      -701.355016149065
Dispersion correction            ... done
                    ***********************HURRAY********************

CARTESIAN COORDINATES (ANGSTROEM)
---------------------------------
  N      0.446437    2.004938   -2.360714
  H      1.081038    2.393227   -1.683170
  C      0.886923    1.840217   -3.717814
  C      1.641544    0.538948   -3.938140
  H      0.034653    1.851137   -4.396470
  H      1.548326    2.659812   -4.004920
  O      2.080218   -0.179111   -3.057792
  C     -0.585810    1.238139   -1.913543
  C     -0.737380    1.160244   -0.394427
  O     -1.267766    0.553591   -2.647467
  N      0.011452   -0.038432   -0.005977
  H     -1.784953    1.025260   -0.139428
  H     -0.331861    2.020745    0.133130
  H     -0.434235   -0.920038   -0.205830
  C      1.348379    0.003387    0.030022
  C      2.090114   -1.335394   -0.032564
  O      2.022439    1.021956    0.076434
  H      2.335359   -1.689431    0.968425
  H      1.551575   -2.104283   -0.582395
  O      1.796872    0.282777   -5.225135
  H      2.288934   -0.541612   -5.339571
  N      3.351216   -1.010039   -0.759299
  H      4.063539   -1.731569   -0.678717
  H      3.117219   -0.823336   -1.751136
  H      3.682262   -0.115955   -0.372233

 Multiplicity           Mult            ....    1
 Number of Electrons    NEL             ....  100
 Basis Dimension        Dim             ....  571

ORBITAL ENERGIES
----------------

  NO   OCC          E(Eh)            E(eV)
   0   2.0000     -19.409571      -528.1613
   1   2.0000     -19.363436      -526.9059
   2   2.0000     -19.352896      -526.6191
   3   2.0000     -19.308065      -525.3992
   4   2.0000     -14.698571      -399.9684
   5   2.0000     -14.603061      -397.3695
   6   2.0000     -14.567970      -396.4146
   7   2.0000     -10.564172      -287.4657
   8   2.0000     -10.550281      -287.0877
   9   2.0000     -10.514022      -286.1011
  10   2.0000     -10.503993      -285.8282
  11   2.0000     -10.454445      -284.4799
  12   2.0000     -10.453297      -284.4487
  13   2.0000      -1.399591       -38.0848
  14   2.0000      -1.357635       -36.9431
  15   2.0000      -1.310022       -35.6475
  16   2.0000      -1.306844       -35.5610
  17   2.0000      -1.297558       -35.3083
  18   2.0000      -1.226830       -33.3837
  19   2.0000      -1.194745       -32.5107
  20   2.0000      -1.062803       -28.9203
  21   2.0000      -1.026630       -27.9360
  22   2.0000      -0.985886       -26.8273
  23   2.0000      -0.898139       -24.4396
  24   2.0000      -0.893111       -24.3028
  25   2.0000      -0.878838       -23.9144
  26   2.0000      -0.865774       -23.5589
  27   2.0000      -0.836169       -22.7533
  28   2.0000      -0.808227       -21.9930
  29   2.0000      -0.788809       -21.4646
  30   2.0000      -0.776768       -21.1369
  31   2.0000      -0.768388       -20.9089
  32   2.0000      -0.756401       -20.5827
  33   2.0000      -0.739065       -20.1110
  34   2.0000      -0.737251       -20.0616
  35   2.0000      -0.718462       -19.5503
  36   2.0000      -0.710536       -19.3347
  37   2.0000      -0.689481       -18.7617
  38   2.0000      -0.669488       -18.2177
  39   2.0000      -0.661216       -17.9926
  40   2.0000      -0.647626       -17.6228
  41   2.0000      -0.646761       -17.5993
  42   2.0000      -0.628877       -17.1126
  43   2.0000      -0.622282       -16.9332
  44   2.0000      -0.586749       -15.9663
  45   2.0000      -0.554734       -15.0951
  46   2.0000      -0.550359       -14.9760
  47   2.0000      -0.539720       -14.6865
  48   2.0000      -0.502855       -13.6834
  49   2.0000      -0.485517       -13.2116
  50   0.0000      -0.079774        -2.1708
  51   0.0000      -0.061368        -1.6699
  52   0.0000      -0.055401        -1.5075
  53   0.0000      -0.027973        -0.7612
  54   0.0000      -0.021841        -0.5943

MULLIKEN ATOMIC CHARGES
-----------------------
   0 N :   -0.193960
   1 H :    0.187915
   2 C :   -0.080724
   3 C :    0.367197
   4 H :    0.154436
   5 H :    0.147210
   6 O :   -0.434261
   7 C :    0.242017
   8 C :   -0.105034
   9 O :   -0.346826
  10 N :   -0.161091
  11 H :    0.151917
  12 H :    0.143735
  13 H :    0.192197
  14 C :    0.276537
  15 C :   -0.158672
  16 O :   -0.401390
  17 H :    0.174457
  18 H :    0.161281
  19 O :   -0.216186
  20 H :    0.238673
  21 N :   -0.056475
  22 H :    0.232625
  23 H :    0.250932
  24 H :    0.233490
Sum of atomic charges:    1.0000000

LOEWDIN ATOMIC CHARGES
----------------------
   0 N :    0.326891
   1 H :   -0.023637
   2 C :   -0.038586
   3 C :   -0.392987
   4 H :    0.049954
   5 H :    0.043678
   6 O :    0.084290
   7 C :   -0.392646
   8 C :   -0.007659
   9 O :    0.101779
  10 N :    0.349976
  11 H :    0.038739
  12 H :    0.031407
  13 H :   -0.005139
  14 C :   -0.400514
  15 C :    0.037481
  16 O :    0.088762
  17 H :    0.039868
  18 H :    0.034346
  19 O :    0.415454
  20 H :   -0.073829
  21 N :    0.607865
  22 H :    0.043380
  23 H :   -0.001231
  24 H :    0.042358

  Mayer bond orders larger than 0.100000
B(  0-N ,  1-H ) :   0.9545 B(  0-N ,  2-C ) :   0.9575 B(  0-N ,  7-C ) :   1.2157
B(  2-C ,  3-C ) :   0.9278 B(  2-C ,  4-H ) :   0.9711 B(  2-C ,  5-H ) :   0.9698
B(  3-C ,  6-O ) :   1.8344 B(  3-C , 19-O ) :   1.3325 B(  6-O , 23-H ) :   0.1084
B(  7-C ,  8-C ) :   0.9228 B(  7-C ,  9-O ) :   2.0274 B(  8-C , 10-N ) :   0.8717
B(  8-C , 11-H ) :   0.9941 B(  8-C , 12-H ) :   0.9977 B( 10-N , 13-H ) :   0.9597
B( 10-N , 14-C ) :   1.3403 B( 14-C , 15-C ) :   0.9335 B( 14-C , 16-O ) :   1.8880
B( 15-C , 17-H ) :   0.9769 B( 15-C , 18-H ) :   0.9928 B( 15-C , 21-N ) :   0.8925
B( 19-O , 20-H ) :   0.9491 B( 21-N , 22-H ) :   0.9388 B( 21-N , 23-H ) :   0.8816
B( 21-N , 24-H ) :   0.8990

Dispersion correction           -0.044920920
FINAL SINGLE POINT ENERGY      -701.355016130748

DIPOLE MOMENT
-------------
                                X             Y             Z
Electronic contribution:     -1.40981       1.06442      -2.80677
Nuclear contribution   :      4.23069      -3.05846       4.06277
                        -----------------------------------------
Total Dipole Moment    :      2.82087      -1.99404       1.25599
                        -----------------------------------------
Magnitude (a.u.)       :      3.67574
Magnitude (Debye)      :      9.34299

Dispersion correction in the Hessian             ... done   (      0.8 sec)

VIBRATIONAL FREQUENCIES
-----------------------

Scaling factor for frequencies =  1.000000000  (already applied!)

   0:         0.00 cm**-1
   1:         0.00 cm**-1
   2:         0.00 cm**-1
   3:         0.00 cm**-1
   4:         0.00 cm**-1
   5:         0.00 cm**-1
   6:        35.99 cm**-1
   7:        54.35 cm**-1
   8:        74.65 cm**-1
   9:        84.40 cm**-1
  10:       110.86 cm**-1
  11:       125.28 cm**-1
  12:       182.96 cm**-1
  13:       207.51 cm**-1
  14:       256.39 cm**-1
  15:       266.15 cm**-1
  16:       292.65 cm**-1
  17:       331.74 cm**-1
  18:       366.89 cm**-1
  19:       397.43 cm**-1
  20:       440.52 cm**-1
  21:       490.10 cm**-1
  22:       516.83 cm**-1
  23:       526.87 cm**-1
  24:       569.43 cm**-1
  25:       627.70 cm**-1
  26:       646.12 cm**-1
  27:       674.73 cm**-1
  28:       703.19 cm**-1
  29:       714.27 cm**-1
  30:       812.57 cm**-1
  31:       873.39 cm**-1
  32:       887.37 cm**-1
  33:       902.69 cm**-1
  34:       926.70 cm**-1
  35:      1003.16 cm**-1
  36:      1023.85 cm**-1
  37:      1064.22 cm**-1
  38:      1073.71 cm**-1
  39:      1126.85 cm**-1
  40:      1137.49 cm**-1
  41:      1161.26 cm**-1
  42:      1209.47 cm**-1
  43:      1243.76 cm**-1
  44:      1299.83 cm**-1
  45:      1303.28 cm**-1
  46:      1319.90 cm**-1
  47:      1348.01 cm**-1
  48:      1351.61 cm**-1
  49:      1386.19 cm**-1
  50:      1428.09 cm**-1
  51:      1448.60 cm**-1
  52:      1470.62 cm**-1
  53:      1490.10 cm**-1
  54:      1492.49 cm**-1
  55:      1516.84 cm**-1
  56:      1574.82 cm**-1
  57:      1593.18 cm**-1
  58:      1613.95 cm**-1
  59:      1682.88 cm**-1
  60:      1778.76 cm**-1
  61:      1789.35 cm**-1
  62:      1806.60 cm**-1
  63:      3111.97 cm**-1
  64:      3123.91 cm**-1
  65:      3139.42 cm**-1
  66:      3167.31 cm**-1
  67:      3191.66 cm**-1
  68:      3205.95 cm**-1
  69:      3239.95 cm**-1
  70:      3382.30 cm**-1
  71:      3559.13 cm**-1
  72:      3651.31 cm**-1
  73:      3668.75 cm**-1
  74:      3803.27 cm**-1

IR SPECTRUM
-----------

 Mode   freq       eps      Int      T**2         TX        TY        TZ
       cm**-1   L/(mol*cm) km/mol    a.u.
----------------------------------------------------------------------------
  6:     35.99   0.000444    2.24  0.003852  (-0.040651  0.046572  0.005497)
  7:     54.35   0.001784    9.02  0.010245  ( 0.081439 -0.053793  0.026817)
  8:     74.65   0.000279    1.41  0.001165  (-0.024070  0.004469  0.023780)
  9:     84.40   0.000424    2.14  0.001566  ( 0.024362 -0.013507  0.028113)
 10:    110.86   0.005669   28.65  0.015958  ( 0.005596 -0.094470  0.083679)
 11:    125.28   0.001537    7.77  0.003828  (-0.019839  0.016185  0.056320)
 12:    182.96   0.009865   49.85  0.016825  (-0.027506  0.004770 -0.126673)
 13:    207.51   0.000247    1.25  0.000372  ( 0.005117 -0.006010  0.017602)
 14:    256.39   0.001260    6.37  0.001534  ( 0.016418  0.019700 -0.029603)
 15:    266.15   0.003503   17.70  0.004107  (-0.041041  0.047112 -0.014250)
 16:    292.65   0.001669    8.44  0.001780  (-0.028357 -0.027857  0.014138)
 17:    331.74   0.003113   15.73  0.002928  (-0.047766  0.024039  0.008299)
 18:    366.89   0.007138   36.07  0.006071  ( 0.060909 -0.048561  0.001742)
 19:    397.43   0.010286   51.98  0.008076  ( 0.074777 -0.047067 -0.016421)
 20:    440.52   0.001552    7.84  0.001099  ( 0.011526  0.029767  0.008967)
 21:    490.10   0.006085   30.75  0.003874  ( 0.005795  0.007048  0.061572)
 22:    516.83   0.007516   37.98  0.004538  (-0.049187  0.029713  0.035160)
 23:    526.87   0.021234  107.31  0.012577  ( 0.011206  0.105138 -0.037379)
 24:    569.43   0.012253   61.92  0.006715  (-0.034046 -0.012113  0.073548)
 25:    627.70   0.015092   76.27  0.007503  (-0.026650 -0.081614 -0.011481)
 26:    646.12   0.010747   54.31  0.005191  (-0.044360 -0.029536  0.048482)
 27:    674.73   0.013107   66.24  0.006062  ( 0.073781  0.024686 -0.003043)
 28:    703.19   0.000119    0.60  0.000053  (-0.004510  0.002116 -0.005305)
 29:    714.27   0.003349   16.92  0.001463  ( 0.017492 -0.010476 -0.032363)
 30:    812.57   0.001597    8.07  0.000613  (-0.009530  0.013723 -0.018277)
 31:    873.39   0.002711   13.70  0.000969  ( 0.029887 -0.007949  0.003474)
 32:    887.37   0.006332   32.00  0.002227  ( 0.000743  0.004440 -0.046973)
 33:    902.69   0.001799    9.09  0.000622  (-0.013862 -0.010881  0.017642)
 34:    926.70   0.005744   29.03  0.001934  (-0.001385  0.001305 -0.043940)
 35:   1003.16   0.001314    6.64  0.000409  ( 0.015349 -0.009872 -0.008704)
 36:   1023.85   0.000902    4.56  0.000275  ( 0.005856 -0.015046 -0.003765)
 37:   1064.22   0.002198   11.11  0.000645  ( 0.000041 -0.024451  0.006833)
 38:   1073.71   0.001351    6.83  0.000393  ( 0.011024 -0.015977 -0.003973)
 39:   1126.85   0.000872    4.41  0.000241  ( 0.004896  0.014373  0.003297)
 40:   1137.49   0.005913   29.88  0.001622  (-0.016165  0.027704 -0.024360)
 41:   1161.26   0.003363   17.00  0.000904  ( 0.008803 -0.013771 -0.025231)
 42:   1209.47   0.042272  213.62  0.010907  ( 0.028975 -0.028099 -0.096321)
 43:   1243.76   0.004607   23.28  0.001156  (-0.027411 -0.016601  0.011358)
 44:   1299.83   0.005685   28.73  0.001365  (-0.026505  0.025717  0.000952)
 45:   1303.28   0.004971   25.12  0.001190  (-0.028695  0.017865 -0.006903)
 46:   1319.90   0.006213   31.40  0.001469  (-0.018422  0.000680  0.033603)
 47:   1348.01   0.001107    5.59  0.000256  (-0.007353  0.004182 -0.013588)
 48:   1351.61   0.006949   35.12  0.001604  (-0.012038  0.006596  0.037630)
 49:   1386.19   0.000635    3.21  0.000143  ( 0.000820 -0.010072  0.006397)
 50:   1428.09   0.001113    5.62  0.000243  ( 0.003566 -0.015181 -0.000074)
 51:   1448.60   0.006498   32.84  0.001400  (-0.022282  0.029674 -0.004776)
 52:   1470.62   0.017517   88.52  0.003717  (-0.005737  0.015255  0.058749)
 53:   1490.10   0.004443   22.45  0.000930  (-0.010153 -0.013254 -0.025528)
 54:   1492.49   0.005177   26.16  0.001082  (-0.018170 -0.025583  0.009887)
 55:   1516.84   0.040600  205.18  0.008353  ( 0.091352 -0.000776 -0.002669)
 56:   1574.82   0.024613  124.39  0.004877  (-0.030519 -0.043737  0.045089)
 57:   1593.18   0.040060  202.45  0.007847  (-0.086151  0.015110  0.014013)
 58:   1613.95   0.005223   26.40  0.001010  (-0.001611 -0.031645 -0.002434)
 59:   1682.88   0.020512  103.66  0.003804  ( 0.036768 -0.036062  0.033931)
 60:   1778.76   0.040681  205.59  0.007137  ( 0.028556  0.055756 -0.056682)
 61:   1789.35   0.103436  522.72  0.018039  (-0.077677  0.009618 -0.109147)
 62:   1806.60   0.048181  243.49  0.008323  ( 0.069710  0.058620  0.005173)
 63:   3111.97   0.001199    6.06  0.000120  (-0.009083  0.003522  0.005030)
 64:   3123.91   0.000183    0.93  0.000018  (-0.003157 -0.000040  0.002886)
 65:   3139.42   0.000435    2.20  0.000043  ( 0.004166 -0.005043 -0.000671)
 66:   3167.31   0.000385    1.95  0.000038  (-0.005721 -0.002245 -0.000454)
 67:   3191.66   0.000138    0.70  0.000013  (-0.002029  0.000282 -0.003042)
 68:   3205.95   0.000005    0.02  0.000000  (-0.000013  0.000523  0.000442)
 69:   3239.95   0.111717  564.57  0.010760  (-0.027034  0.034003 -0.094198)
 70:   3382.30   0.020243  102.30  0.001868  ( 0.011217  0.030496  0.028493)
 71:   3559.13   0.026814  135.51  0.002351  ( 0.032094 -0.035284  0.008723)
 72:   3651.31   0.012134   61.32  0.001037  ( 0.022859  0.022595  0.001994)
 73:   3668.75   0.012528   63.31  0.001066  ( 0.022118  0.013564  0.019809)
 74:   3803.27   0.023718  119.86  0.001946  (-0.019592  0.031321  0.024109)

--------------------------
THERMOCHEMISTRY AT 298.15K
--------------------------

Temperature         ... 298.15 K
Pressure            ... 1.00 atm
Total Mass          ... 190.18 AMU

Throughout the following assumptions are being made:
  (1) The electronic state is orbitally nondegenerate
  (2) There are no thermally accessible electronically excited states
  (3) Hindered rotations indicated by low frequency modes are not
      treated as such but are treated as vibrations and this may
      cause some error
  (4) All equations used are the standard statistical mechanics
      equations for an ideal gas
  (5) All vibrations are strictly harmonic

freq.      35.99  E(vib)   ...       0.54
freq.      54.35  E(vib)   ...       0.52
freq.      74.65  E(vib)   ...       0.49
freq.      84.40  E(vib)   ...       0.48
freq.     110.86  E(vib)   ...       0.45
freq.     125.28  E(vib)   ...       0.43
freq.     182.96  E(vib)   ...       0.37
freq.     207.51  E(vib)   ...       0.34
freq.     256.39  E(vib)   ...       0.30
freq.     266.15  E(vib)   ...       0.29
freq.     292.65  E(vib)   ...       0.27
freq.     331.74  E(vib)   ...       0.24
freq.     366.89  E(vib)   ...       0.22
freq.     397.43  E(vib)   ...       0.20
freq.     440.52  E(vib)   ...       0.17
freq.     490.10  E(vib)   ...       0.15
freq.     516.83  E(vib)   ...       0.13
freq.     526.87  E(vib)   ...       0.13
freq.     569.43  E(vib)   ...       0.11
freq.     627.70  E(vib)   ...       0.09
freq.     646.12  E(vib)   ...       0.09
freq.     674.73  E(vib)   ...       0.08
freq.     703.19  E(vib)   ...       0.07
freq.     714.27  E(vib)   ...       0.07
freq.     812.57  E(vib)   ...       0.05
freq.     873.39  E(vib)   ...       0.04
freq.     887.37  E(vib)   ...       0.04
freq.     902.69  E(vib)   ...       0.03
freq.     926.70  E(vib)   ...       0.03
freq.    1003.16  E(vib)   ...       0.02
freq.    1023.85  E(vib)   ...       0.02
freq.    1064.22  E(vib)   ...       0.02
freq.    1073.71  E(vib)   ...       0.02
freq.    1126.85  E(vib)   ...       0.01
freq.    1137.49  E(vib)   ...       0.01
freq.    1161.26  E(vib)   ...       0.01
freq.    1209.47  E(vib)   ...       0.01
freq.    1243.76  E(vib)   ...       0.01
freq.    1299.83  E(vib)   ...       0.01
freq.    1303.28  E(vib)   ...       0.01
freq.    1319.90  E(vib)   ...       0.01
freq.    1348.01  E(vib)   ...       0.01
freq.    1351.61  E(vib)   ...       0.01
freq.    1386.19  E(vib)   ...       0.00
freq.    1428.09  E(vib)   ...       0.00
freq.    1448.60  E(vib)   ...       0.00
freq.    1470.62  E(vib)   ...       0.00
freq.    1490.10  E(vib)   ...       0.00
freq.    1492.49  E(vib)   ...       0.00
freq.    1516.84  E(vib)   ...       0.00
freq.    1574.82  E(vib)   ...       0.00
freq.    1593.18  E(vib)   ...       0.00
freq.    1613.95  E(vib)   ...       0.00
freq.    1682.88  E(vib)   ...       0.00
freq.    1778.76  E(vib)   ...       0.00
freq.    1789.35  E(vib)   ...       0.00
freq.    1806.60  E(vib)   ...       0.00
freq.    3111.97  E(vib)   ...       0.00
freq.    3123.91  E(vib)   ...       0.00
freq.    3139.42  E(vib)   ...       0.00
freq.    3167.31  E(vib)   ...       0.00
freq.    3191.66  E(vib)   ...       0.00
freq.    3205.95  E(vib)   ...       0.00
freq.    3239.95  E(vib)   ...       0.00
freq.    3382.30  E(vib)   ...       0.00
freq.    3559.13  E(vib)   ...       0.00
freq.    3651.31  E(vib)   ...       0.00
freq.    3668.75  E(vib)   ...       0.00
freq.    3803.27  E(vib)   ...       0.00

------------
INNER ENERGY
------------

The inner energy is: U= E(el) + E(ZPE) + E(vib) + E(rot) + E(trans)
    E(el)   - is the total energy from the electronic structure calculation
              = E(kin-el) + E(nuc-el) + E(el-el) + E(nuc-nuc)
    E(ZPE)  - the the zero temperature vibrational energy from the frequency calculation
    E(vib)  - the the finite temperature correction to E(ZPE) due to population
              of excited vibrational states
    E(rot)  - is the rotational thermal energy
    E(trans)- is the translational thermal energy

Summary of contributions to the inner energy U:
Electronic energy                ...   -701.35501613 Eh
Zero point energy                ...      0.20978169 Eh     131.64 kcal/mol
Thermal vibrational correction   ...      0.01052951 Eh       6.61 kcal/mol
Thermal rotational correction    ...      0.00141627 Eh       0.89 kcal/mol
Thermal translational correction ...      0.00141627 Eh       0.89 kcal/mol
-----------------------------------------------------------------------
Total thermal energy                   -701.13187239 Eh

Summary of corrections to the electronic energy:
(perhaps to be used in another calculation)
Total thermal correction                  0.01336206 Eh       8.38 kcal/mol
Non-thermal (ZPE) correction              0.20978169 Eh     131.64 kcal/mol
-----------------------------------------------------------------------
Total correction                          0.22314375 Eh     140.02 kcal/mol

--------
ENTHALPY
--------

The enthalpy is H = U + kB*T
                kB is Boltzmann's constant
Total free energy                 ...   -701.13187239 Eh
Thermal Enthalpy correction       ...      0.00094421 Eh       0.59 kcal/mol
-----------------------------------------------------------------------
Total Enthalpy                    ...   -701.13092818 Eh

Note: Only C1 symmetry has been detected, increase convergence thresholds
      if your molecule has a higher symmetry. Symmetry factor of 1.0 is
      used for the rotational entropy correction.

Note: Rotational entropy computed according to Herzberg
Infrared and Raman Spectra, Chapter V,1, Van Nostrand Reinhold, 1945
Point Group:  C1, Symmetry Number:   1
Rotational constants in cm-1:     0.032797     0.023563     0.016348

Vibrational entropy computed according to the QRRHO of S. Grimme
Chem.Eur.J. 2012 18 9955

-------
ENTROPY
-------

The entropy contributions are T*S = T*(S(el)+S(vib)+S(rot)+S(trans))
     S(el)   - electronic entropy
     S(vib)  - vibrational entropy
     S(rot)  - rotational entropy
     S(trans)- translational entropy
The entropies will be listed as multiplied by the temperature to get
units of energy

Electronic entropy                ...      0.00000000 Eh      0.00 kcal/mol
Vibrational entropy               ...      0.01854710 Eh     11.64 kcal/mol
Rotational entropy                ...      0.01483560 Eh      9.31 kcal/mol
Translational entropy             ...      0.01978162 Eh     12.41 kcal/mol
-----------------------------------------------------------------------

                             ****ORCA TERMINATED NORMALLY****
TOTAL RUN TIME: 0 days 2 hours 32 minutes 24 seconds 960 msec
