                         Program Version 5.0.2 -  RELEASE  -
|  1> # GGG-H_tt_020 (old 099)
|  2> ! wB97X-D3BJ Opt Freq def2-TZVPP def2/J RIJCOSX VeryTightSCF
|  3> ! PAL8 defgrid3 VeryTightOpt
|  4>
|  5> %maxcore 4096
|  6>
|  7> %geom
|  8>   MaxIter 300
|  9>   # MaxStep 0.1
| 10>   Calc_Hess true
| 11>   Recalc_Hess 10
| 12> end
| 13>
| 14> %chelpg
| 15>   grid 0.1
| 16>   rmax 3.0
| 17> end
| 18>
| 19> * xyz 1 1
| 20>  N   -0.061259   +1.071507   +2.545125
| 21>  H   -0.105909   +0.072987   +2.354480
| 22>  C   +0.644423   +1.482490   +3.730990
| 23>  C   +1.957237   +0.729946   +3.880118
| 24>  H   +0.841646   +2.567324   +3.644485
| 25>  H   +0.058094   +1.337373   +4.658636
| 26>  O   +2.347190   -0.147244   +3.107242
| 27>  C   -0.295120   +1.952933   +1.509139
| 28>  C   -0.704937   +1.276323   +0.178860
| 29>  O   -0.198361   +3.161414   +1.617011
| 30>  N   +0.000000   +0.000000   +0.000000
| 31>  H   -0.451627   +1.983936   -0.624668
| 32>  H   -1.788466   +1.081177   +0.158795
| 33>  H   -0.521199   -0.873908   -0.064195
| 34>  C   +1.348364   +0.000000   +0.000000
| 35>  C   +2.096645   -1.347044   +0.098363
| 36>  O   +2.032417   +1.028208   +0.000000
| 37>  H   +2.307792   -1.762173   -0.900543
| 38>  H   +1.581418   -2.099409   +0.713023
| 39>  O   +2.625191   +1.099795   +4.966688
| 40>  H   +3.450011   +0.572828   +5.040048
| 41>  N   +3.385255   -0.952931   +0.748805
| 42>  H   +3.219261   -0.800094   +1.779037
| 43>  H   +4.171356   -1.592398   +0.574660
| 44>  H   +3.555955   +0.016840   +0.368017
| 45> *
| 46>
| 47>                          ****END OF INPUT****
 Total Charge           Charge          ....    1
 Multiplicity           Mult            ....    1
 Number of Electrons    NEL             ....  100
Dispersion correction           -0.044402242
FINAL SINGLE POINT ENERGY      -701.345414467380
Dispersion correction            ... done
Dispersion correction in the Hessian             ... done   (      0.6 sec)
Dispersion correction           -0.044621879
FINAL SINGLE POINT ENERGY      -701.348959544763
Dispersion correction            ... done
Dispersion correction           -0.044551500
FINAL SINGLE POINT ENERGY      -701.349036732280
FINAL SINGLE POINT ENERGY      -701.349055567863
FINAL SINGLE POINT ENERGY      -701.349059945430
FINAL SINGLE POINT ENERGY      -701.349061760255
Dispersion correction           -0.044477567
FINAL SINGLE POINT ENERGY      -701.349061544345
Dispersion correction            ... done
Dispersion correction           -0.044478846
FINAL SINGLE POINT ENERGY      -701.349061513911
Dispersion correction            ... done
                    ***********************HURRAY********************

CARTESIAN COORDINATES (ANGSTROEM)
---------------------------------
  N     -0.070443    1.059584    2.553412
  H     -0.113672    0.074903    2.366095
  C      0.622283    1.471236    3.740384
  C      1.950023    0.759457    3.887288
  H      0.801007    2.547030    3.682540
  H      0.044663    1.291606    4.651500
  O      2.370528   -0.096714    3.128198
  C     -0.296712    1.933006    1.522410
  C     -0.688708    1.274167    0.191864
  O     -0.210967    3.130517    1.630758
  N      0.018580    0.012335   -0.009125
  H     -0.445201    1.986158   -0.593977
  H     -1.760805    1.079939    0.174079
  H     -0.488011   -0.855784   -0.042603
  C      1.359405    0.019293   -0.004810
  C      2.089650   -1.327067    0.075879
  O      2.037071    1.031600   -0.005021
  H      2.278696   -1.727426   -0.920079
  H      1.569783   -2.066622    0.681406
  O      2.601706    1.154464    4.966470
  H      3.431450    0.665047    5.048976
  N      3.389081   -0.986327    0.721686
  H      3.229733   -0.806608    1.729275
  H      4.110771   -1.689070    0.582676
  H      3.665463   -0.074844    0.324832

 Multiplicity           Mult            ....    1
 Number of Electrons    NEL             ....  100
 Basis Dimension        Dim             ....  571

ORBITAL ENERGIES
----------------

  NO   OCC          E(Eh)            E(eV)
   0   2.0000     -19.412230      -528.2336
   1   2.0000     -19.366908      -527.0004
   2   2.0000     -19.353792      -526.6434
   3   2.0000     -19.301280      -525.2145
   4   2.0000     -14.697926      -399.9509
   5   2.0000     -14.607001      -397.4767
   6   2.0000     -14.565095      -396.3364
   7   2.0000     -10.567115      -287.5458
   8   2.0000     -10.551422      -287.1188
   9   2.0000     -10.517679      -286.2006
  10   2.0000     -10.500928      -285.7448
  11   2.0000     -10.453330      -284.4496
  12   2.0000     -10.452824      -284.4358
  13   2.0000      -1.402541       -38.1651
  14   2.0000      -1.360693       -37.0263
  15   2.0000      -1.310250       -35.6537
  16   2.0000      -1.304146       -35.4876
  17   2.0000      -1.297139       -35.2970
  18   2.0000      -1.230359       -33.4798
  19   2.0000      -1.191490       -32.4221
  20   2.0000      -1.064360       -28.9627
  21   2.0000      -1.026482       -27.9320
  22   2.0000      -0.987854       -26.8809
  23   2.0000      -0.897277       -24.4162
  24   2.0000      -0.893753       -24.3203
  25   2.0000      -0.883914       -24.0525
  26   2.0000      -0.871159       -23.7054
  27   2.0000      -0.838917       -22.8281
  28   2.0000      -0.810222       -22.0473
  29   2.0000      -0.788412       -21.4538
  30   2.0000      -0.777927       -21.1685
  31   2.0000      -0.769657       -20.9434
  32   2.0000      -0.755326       -20.5535
  33   2.0000      -0.737117       -20.0580
  34   2.0000      -0.736576       -20.0432
  35   2.0000      -0.723106       -19.6767
  36   2.0000      -0.701252       -19.0820
  37   2.0000      -0.688796       -18.7431
  38   2.0000      -0.676623       -18.4119
  39   2.0000      -0.669815       -18.2266
  40   2.0000      -0.654640       -17.8137
  41   2.0000      -0.640934       -17.4407
  42   2.0000      -0.631204       -17.1759
  43   2.0000      -0.607080       -16.5195
  44   2.0000      -0.590443       -16.0668
  45   2.0000      -0.556864       -15.1531
  46   2.0000      -0.547863       -14.9081
  47   2.0000      -0.541060       -14.7230
  48   2.0000      -0.494039       -13.4435
  49   2.0000      -0.485149       -13.2016
  50   0.0000      -0.078534        -2.1370
  51   0.0000      -0.064464        -1.7541
  52   0.0000      -0.055617        -1.5134
  53   0.0000      -0.043170        -1.1747
  54   0.0000      -0.017566        -0.4780

MULLIKEN ATOMIC CHARGES
-----------------------
   0 N :   -0.185486
   1 H :    0.141822
   2 C :   -0.070186
   3 C :    0.378087
   4 H :    0.148075
   5 H :    0.152581
   6 O :   -0.445571
   7 C :    0.243772
   8 C :   -0.074023
   9 O :   -0.308081
  10 N :   -0.227294
  11 H :    0.152405
  12 H :    0.139283
  13 H :    0.197534
  14 C :    0.251558
  15 C :   -0.168216
  16 O :   -0.351194
  17 H :    0.180221
  18 H :    0.159439
  19 O :   -0.216179
  20 H :    0.238972
  21 N :   -0.053291
  22 H :    0.249174
  23 H :    0.231900
  24 H :    0.234699
Sum of atomic charges:    1.0000000

LOEWDIN ATOMIC CHARGES
----------------------
   0 N :    0.317737
   1 H :   -0.043512
   2 C :   -0.034701
   3 C :   -0.393852
   4 H :    0.052316
   5 H :    0.042058
   6 O :    0.079251
   7 C :   -0.389680
   8 C :   -0.010895
   9 O :    0.128505
  10 N :    0.337680
  11 H :    0.043707
  12 H :    0.035964
  13 H :   -0.019218
  14 C :   -0.405007
  15 C :    0.032976
  16 O :    0.125580
  17 H :    0.039492
  18 H :    0.031877
  19 O :    0.415520
  20 H :   -0.073527
  21 N :    0.607608
  22 H :   -0.001818
  23 H :    0.042385
  24 H :    0.039553

  Mayer bond orders larger than 0.100000
B(  0-N ,  1-H ) :   0.9689 B(  0-N ,  2-C ) :   0.9284 B(  0-N ,  7-C ) :   1.1722
B(  2-C ,  3-C ) :   0.9569 B(  2-C ,  4-H ) :   0.9642 B(  2-C ,  5-H ) :   0.9646
B(  3-C ,  6-O ) :   1.8248 B(  3-C , 19-O ) :   1.3365 B(  6-O , 22-H ) :   0.1134
B(  7-C ,  8-C ) :   0.9192 B(  7-C ,  9-O ) :   2.1206 B(  8-C , 10-N ) :   0.8750
B(  8-C , 11-H ) :   0.9860 B(  8-C , 12-H ) :   0.9815 B( 10-N , 13-H ) :   0.9601
B( 10-N , 14-C ) :   1.2949 B( 14-C , 15-C ) :   0.9228 B( 14-C , 16-O ) :   1.9466
B( 15-C , 17-H ) :   0.9790 B( 15-C , 18-H ) :   0.9919 B( 15-C , 21-N ) :   0.8968
B( 19-O , 20-H ) :   0.9483 B( 21-N , 22-H ) :   0.8814 B( 21-N , 23-H ) :   0.9387
B( 21-N , 24-H ) :   0.8915

Dispersion correction           -0.044479231
FINAL SINGLE POINT ENERGY      -701.349061555153

DIPOLE MOMENT
-------------
                                X             Y             Z
Electronic contribution:      0.19809       3.41895       2.26092
Nuclear contribution   :      1.58051      -7.55447      -3.04143
                        -----------------------------------------
Total Dipole Moment    :      1.77860      -4.13551      -0.78051
                        -----------------------------------------
Magnitude (a.u.)       :      4.56893
Magnitude (Debye)      :     11.61329

Dispersion correction in the Hessian             ... done   (      0.6 sec)

VIBRATIONAL FREQUENCIES
-----------------------

Scaling factor for frequencies =  1.000000000  (already applied!)

   0:         0.00 cm**-1
   1:         0.00 cm**-1
   2:         0.00 cm**-1
   3:         0.00 cm**-1
   4:         0.00 cm**-1
   5:         0.00 cm**-1
   6:        53.75 cm**-1
   7:        63.58 cm**-1
   8:        66.44 cm**-1
   9:        88.26 cm**-1
  10:       110.51 cm**-1
  11:       120.47 cm**-1
  12:       186.23 cm**-1
  13:       222.94 cm**-1
  14:       242.16 cm**-1
  15:       259.96 cm**-1
  16:       278.18 cm**-1
  17:       309.73 cm**-1
  18:       359.94 cm**-1
  19:       409.54 cm**-1
  20:       438.60 cm**-1
  21:       464.05 cm**-1
  22:       481.59 cm**-1
  23:       520.72 cm**-1
  24:       524.70 cm**-1
  25:       613.65 cm**-1
  26:       631.07 cm**-1
  27:       646.10 cm**-1
  28:       671.32 cm**-1
  29:       703.62 cm**-1
  30:       722.66 cm**-1
  31:       879.30 cm**-1
  32:       888.99 cm**-1
  33:       916.38 cm**-1
  34:       931.57 cm**-1
  35:      1010.64 cm**-1
  36:      1043.43 cm**-1
  37:      1057.60 cm**-1
  38:      1082.71 cm**-1
  39:      1129.65 cm**-1
  40:      1136.98 cm**-1
  41:      1168.81 cm**-1
  42:      1208.97 cm**-1
  43:      1258.26 cm**-1
  44:      1271.36 cm**-1
  45:      1273.65 cm**-1
  46:      1314.03 cm**-1
  47:      1342.83 cm**-1
  48:      1345.89 cm**-1
  49:      1365.17 cm**-1
  50:      1413.73 cm**-1
  51:      1464.14 cm**-1
  52:      1470.39 cm**-1
  53:      1476.71 cm**-1
  54:      1493.74 cm**-1
  55:      1512.81 cm**-1
  56:      1567.71 cm**-1
  57:      1581.90 cm**-1
  58:      1611.21 cm**-1
  59:      1685.36 cm**-1
  60:      1781.49 cm**-1
  61:      1792.44 cm**-1
  62:      1837.25 cm**-1
  63:      3087.32 cm**-1
  64:      3122.02 cm**-1
  65:      3125.10 cm**-1
  66:      3140.83 cm**-1
  67:      3185.97 cm**-1
  68:      3188.06 cm**-1
  69:      3243.05 cm**-1
  70:      3341.27 cm**-1
  71:      3561.00 cm**-1
  72:      3675.48 cm**-1
  73:      3701.86 cm**-1
  74:      3803.74 cm**-1

IR SPECTRUM
-----------

 Mode   freq       eps      Int      T**2         TX        TY        TZ
       cm**-1   L/(mol*cm) km/mol    a.u.
----------------------------------------------------------------------------
  6:     53.75   0.000723    3.65  0.004197  (-0.031310  0.012730  0.055267)
  7:     63.58   0.000542    2.74  0.002660  (-0.038339 -0.027744 -0.020500)
  8:     66.44   0.001464    7.40  0.006876  ( 0.075256 -0.003386 -0.034657)
  9:     88.26   0.001402    7.08  0.004956  ( 0.064231 -0.020646  0.020092)
 10:    110.51   0.003566   18.02  0.010068  (-0.009710  0.061536  0.078660)
 11:    120.47   0.000923    4.67  0.002392  (-0.038399  0.021977 -0.020851)
 12:    186.23   0.010400   52.56  0.017427  (-0.018375  0.008557  0.130446)
 13:    222.94   0.000468    2.36  0.000654  ( 0.011707  0.014344  0.017654)
 14:    242.16   0.002070   10.46  0.002668  (-0.015061  0.042791 -0.024693)
 15:    259.96   0.003379   17.07  0.004056  (-0.052004 -0.007616  0.035966)
 16:    278.18   0.002370   11.98  0.002659  (-0.045280  0.024418 -0.003548)
 17:    309.73   0.001141    5.77  0.001149  (-0.023149  0.017108  0.017915)
 18:    359.94   0.004136   20.90  0.003586  ( 0.041286 -0.043168  0.004233)
 19:    409.54   0.012608   63.72  0.009607  (-0.084339  0.047379 -0.015795)
 20:    438.60   0.011903   60.15  0.008469  (-0.080624  0.002568  0.044297)
 21:    464.05   0.020617  104.19  0.013864  ( 0.032668  0.028460  0.109486)
 22:    481.59   0.010584   53.49  0.006858  (-0.041749 -0.018727  0.069027)
 23:    520.72   0.005640   28.50  0.003380  ( 0.043434  0.036986  0.011216)
 24:    524.70   0.004254   21.50  0.002530  (-0.002836 -0.016567  0.047411)
 25:    613.65   0.003331   16.83  0.001694  (-0.037567 -0.015034 -0.007516)
 26:    631.07   0.003043   15.38  0.001505  (-0.017153 -0.016503  0.030630)
 27:    646.10   0.004936   24.95  0.002384  ( 0.037258 -0.021079  0.023488)
 28:    671.32   0.017412   87.99  0.008094  (-0.043851 -0.061218  0.049227)
 29:    703.62   0.000464    2.35  0.000206  (-0.003121 -0.001806  0.013890)
 30:    722.66   0.000245    1.24  0.000106  (-0.006399  0.007988 -0.001046)
 31:    879.30   0.004329   21.88  0.001536  ( 0.022579 -0.023212  0.022084)
 32:    888.99   0.002492   12.59  0.000875  ( 0.002197  0.004158  0.029199)
 33:    916.38   0.004269   21.57  0.001454  ( 0.002530 -0.029223 -0.024358)
 34:    931.57   0.005283   26.70  0.001770  ( 0.004112  0.000624  0.041863)
 35:   1010.64   0.001335    6.75  0.000412  (-0.017412  0.007688 -0.007076)
 36:   1043.43   0.001379    6.97  0.000412  ( 0.013064 -0.009956 -0.011939)
 37:   1057.60   0.001744    8.81  0.000514  ( 0.006885 -0.000491 -0.021606)
 38:   1082.71   0.003571   18.05  0.001029  ( 0.006129 -0.031489 -0.000311)
 39:   1129.65   0.000974    4.92  0.000269  ( 0.004078  0.010348 -0.012054)
 40:   1136.98   0.004904   24.78  0.001346  (-0.012189  0.030829  0.015714)
 41:   1168.81   0.005204   26.30  0.001389  (-0.025885 -0.009292 -0.025162)
 42:   1208.97   0.040905  206.72  0.010559  (-0.061601 -0.010692 -0.081545)
 43:   1258.26   0.002464   12.45  0.000611  ( 0.001919 -0.017960  0.016876)
 44:   1271.36   0.008844   44.69  0.002171  (-0.012785  0.017272  0.041340)
 45:   1273.65   0.004335   21.91  0.001062  (-0.018208  0.019849 -0.018350)
 46:   1314.03   0.012816   64.77  0.003044  ( 0.033340 -0.025278  0.035960)
 47:   1342.83   0.000646    3.26  0.000150  (-0.007917 -0.003040  0.008837)
 48:   1345.89   0.003605   18.22  0.000836  (-0.013029 -0.006406 -0.025002)
 49:   1365.17   0.003764   19.02  0.000860  ( 0.024405 -0.012125  0.010851)
 50:   1413.73   0.000552    2.79  0.000122  (-0.002742 -0.010690 -0.000337)
 51:   1464.14   0.019972  100.93  0.004257  ( 0.043693 -0.021048  0.043641)
 52:   1470.39   0.018857   95.29  0.004002  ( 0.011953  0.023400  0.057546)
 53:   1476.71   0.003039   15.36  0.000642  (-0.022303 -0.010443  0.005986)
 54:   1493.74   0.007207   36.42  0.001506  ( 0.027116  0.027003  0.006423)
 55:   1512.81   0.044287  223.81  0.009136  (-0.095576  0.000445 -0.000830)
 56:   1567.71   0.025756  130.16  0.005127  ( 0.012249  0.028725 -0.064433)
 57:   1581.90   0.042147  212.99  0.008314  ( 0.074374 -0.045409  0.026850)
 58:   1611.21   0.003500   17.69  0.000678  ( 0.005852 -0.025369  0.000112)
 59:   1685.36   0.026814  135.51  0.004965  ( 0.033836 -0.049356 -0.037202)
 60:   1781.49   0.090865  459.19  0.015917  ( 0.012532  0.085585  0.091842)
 61:   1792.44   0.038003  192.05  0.006616  (-0.069258  0.013872  0.040338)
 62:   1837.25   0.053340  269.56  0.009060  ( 0.004103  0.093110 -0.019329)
 63:   3087.32   0.003357   16.97  0.000339  ( 0.009970 -0.007820  0.013372)
 64:   3122.02   0.000255    1.29  0.000026  ( 0.004462  0.000541  0.002308)
 65:   3125.10   0.000346    1.75  0.000035  ( 0.005165 -0.002067 -0.001903)
 66:   3140.83   0.002093   10.58  0.000208  (-0.004745  0.013418 -0.002326)
 67:   3185.97   0.000044    0.22  0.000004  (-0.001988 -0.000548  0.000113)
 68:   3188.06   0.000103    0.52  0.000010  ( 0.001724  0.000595 -0.002604)
 69:   3243.05   0.111658  564.27  0.010744  ( 0.018467 -0.036946 -0.095070)
 70:   3341.27   0.023087  116.67  0.002156  (-0.004532 -0.035164  0.029987)
 71:   3561.00   0.027493  138.94  0.002409  ( 0.032621 -0.034860 -0.011398)
 72:   3675.48   0.014215   71.84  0.001207  (-0.025994 -0.022718 -0.003888)
 73:   3701.86   0.004860   24.56  0.000410  (-0.001720  0.020098  0.001667)
 74:   3803.74   0.024938  126.03  0.002046  (-0.038458  0.011829 -0.020664)

--------------------------
THERMOCHEMISTRY AT 298.15K
--------------------------

Temperature         ... 298.15 K
Pressure            ... 1.00 atm
Total Mass          ... 190.18 AMU

Throughout the following assumptions are being made:
  (1) The electronic state is orbitally nondegenerate
  (2) There are no thermally accessible electronically excited states
  (3) Hindered rotations indicated by low frequency modes are not
      treated as such but are treated as vibrations and this may
      cause some error
  (4) All equations used are the standard statistical mechanics
      equations for an ideal gas
  (5) All vibrations are strictly harmonic

freq.      53.75  E(vib)   ...       0.52
freq.      63.58  E(vib)   ...       0.51
freq.      66.44  E(vib)   ...       0.50
freq.      88.26  E(vib)   ...       0.48
freq.     110.51  E(vib)   ...       0.45
freq.     120.47  E(vib)   ...       0.44
freq.     186.23  E(vib)   ...       0.37
freq.     222.94  E(vib)   ...       0.33
freq.     242.16  E(vib)   ...       0.31
freq.     259.96  E(vib)   ...       0.30
freq.     278.18  E(vib)   ...       0.28
freq.     309.73  E(vib)   ...       0.26
freq.     359.94  E(vib)   ...       0.22
freq.     409.54  E(vib)   ...       0.19
freq.     438.60  E(vib)   ...       0.17
freq.     464.05  E(vib)   ...       0.16
freq.     481.59  E(vib)   ...       0.15
freq.     520.72  E(vib)   ...       0.13
freq.     524.70  E(vib)   ...       0.13
freq.     613.65  E(vib)   ...       0.10
freq.     631.07  E(vib)   ...       0.09
freq.     646.10  E(vib)   ...       0.09
freq.     671.32  E(vib)   ...       0.08
freq.     703.62  E(vib)   ...       0.07
freq.     722.66  E(vib)   ...       0.07
freq.     879.30  E(vib)   ...       0.04
freq.     888.99  E(vib)   ...       0.04
freq.     916.38  E(vib)   ...       0.03
freq.     931.57  E(vib)   ...       0.03
freq.    1010.64  E(vib)   ...       0.02
freq.    1043.43  E(vib)   ...       0.02
freq.    1057.60  E(vib)   ...       0.02
freq.    1082.71  E(vib)   ...       0.02
freq.    1129.65  E(vib)   ...       0.01
freq.    1136.98  E(vib)   ...       0.01
freq.    1168.81  E(vib)   ...       0.01
freq.    1208.97  E(vib)   ...       0.01
freq.    1258.26  E(vib)   ...       0.01
freq.    1271.36  E(vib)   ...       0.01
freq.    1273.65  E(vib)   ...       0.01
freq.    1314.03  E(vib)   ...       0.01
freq.    1342.83  E(vib)   ...       0.01
freq.    1345.89  E(vib)   ...       0.01
freq.    1365.17  E(vib)   ...       0.01
freq.    1413.73  E(vib)   ...       0.00
freq.    1464.14  E(vib)   ...       0.00
freq.    1470.39  E(vib)   ...       0.00
freq.    1476.71  E(vib)   ...       0.00
freq.    1493.74  E(vib)   ...       0.00
freq.    1512.81  E(vib)   ...       0.00
freq.    1567.71  E(vib)   ...       0.00
freq.    1581.90  E(vib)   ...       0.00
freq.    1611.21  E(vib)   ...       0.00
freq.    1685.36  E(vib)   ...       0.00
freq.    1781.49  E(vib)   ...       0.00
freq.    1792.44  E(vib)   ...       0.00
freq.    1837.25  E(vib)   ...       0.00
freq.    3087.32  E(vib)   ...       0.00
freq.    3122.02  E(vib)   ...       0.00
freq.    3125.10  E(vib)   ...       0.00
freq.    3140.83  E(vib)   ...       0.00
freq.    3185.97  E(vib)   ...       0.00
freq.    3188.06  E(vib)   ...       0.00
freq.    3243.05  E(vib)   ...       0.00
freq.    3341.27  E(vib)   ...       0.00
freq.    3561.00  E(vib)   ...       0.00
freq.    3675.48  E(vib)   ...       0.00
freq.    3701.86  E(vib)   ...       0.00
freq.    3803.74  E(vib)   ...       0.00

------------
INNER ENERGY
------------

The inner energy is: U= E(el) + E(ZPE) + E(vib) + E(rot) + E(trans)
    E(el)   - is the total energy from the electronic structure calculation
              = E(kin-el) + E(nuc-el) + E(el-el) + E(nuc-nuc)
    E(ZPE)  - the the zero temperature vibrational energy from the frequency calculation
    E(vib)  - the the finite temperature correction to E(ZPE) due to population
              of excited vibrational states
    E(rot)  - is the rotational thermal energy
    E(trans)- is the translational thermal energy

Summary of contributions to the inner energy U:
Electronic energy                ...   -701.34906156 Eh
Zero point energy                ...      0.20886369 Eh     131.06 kcal/mol
Thermal vibrational correction   ...      0.01068166 Eh       6.70 kcal/mol
Thermal rotational correction    ...      0.00141627 Eh       0.89 kcal/mol
Thermal translational correction ...      0.00141627 Eh       0.89 kcal/mol
-----------------------------------------------------------------------
Total thermal energy                   -701.12668365 Eh

Summary of corrections to the electronic energy:
(perhaps to be used in another calculation)
Total thermal correction                  0.01351421 Eh       8.48 kcal/mol
Non-thermal (ZPE) correction              0.20886369 Eh     131.06 kcal/mol
-----------------------------------------------------------------------
Total correction                          0.22237790 Eh     139.54 kcal/mol

--------
ENTHALPY
--------

The enthalpy is H = U + kB*T
                kB is Boltzmann's constant
Total free energy                 ...   -701.12668365 Eh
Thermal Enthalpy correction       ...      0.00094421 Eh       0.59 kcal/mol
-----------------------------------------------------------------------
Total Enthalpy                    ...   -701.12573944 Eh

Note: Only C1 symmetry has been detected, increase convergence thresholds
      if your molecule has a higher symmetry. Symmetry factor of 1.0 is
      used for the rotational entropy correction.

Note: Rotational entropy computed according to Herzberg
Infrared and Raman Spectra, Chapter V,1, Van Nostrand Reinhold, 1945
Point Group:  C1, Symmetry Number:   1
Rotational constants in cm-1:     0.029676     0.024661     0.015377

Vibrational entropy computed according to the QRRHO of S. Grimme
Chem.Eur.J. 2012 18 9955

-------
ENTROPY
-------

The entropy contributions are T*S = T*(S(el)+S(vib)+S(rot)+S(trans))
     S(el)   - electronic entropy
     S(vib)  - vibrational entropy
     S(rot)  - rotational entropy
     S(trans)- translational entropy
The entropies will be listed as multiplied by the temperature to get
units of energy

Electronic entropy                ...      0.00000000 Eh      0.00 kcal/mol
Vibrational entropy               ...      0.01868946 Eh     11.73 kcal/mol
Rotational entropy                ...      0.01489019 Eh      9.34 kcal/mol
Translational entropy             ...      0.01978162 Eh     12.41 kcal/mol
-----------------------------------------------------------------------

                             ****ORCA TERMINATED NORMALLY****
TOTAL RUN TIME: 0 days 1 hours 38 minutes 16 seconds 135 msec
