                         Program Version 5.0.2 -  RELEASE  -
|  1> # GGG-H_tt_011 (old 054)
|  2> ! wB97X-D3BJ Opt Freq def2-TZVPP def2/J RIJCOSX VeryTightSCF
|  3> ! PAL8 defgrid3 VeryTightOpt
|  4>
|  5> %maxcore 4096
|  6>
|  7> %geom
|  8>   MaxIter 300
|  9>   # MaxStep 0.1
| 10>   Calc_Hess true
| 11>   Recalc_Hess 10
| 12> end
| 13>
| 14> %chelpg
| 15>   grid 0.1
| 16>   rmax 3.0
| 17> end
| 18>
| 19> * xyz 1 1
| 20>  N   +0.471586   +1.862513   +2.347315
| 21>  H   +1.205372   +2.104324   +1.678113
| 22>  C   +0.813966   +1.693883   +3.735994
| 23>  C   +1.775976   +0.533544   +3.966938
| 24>  H   -0.119759   +1.478691   +4.287340
| 25>  H   +1.254087   +2.606564   +4.175417
| 26>  O   +2.179395   -0.236395   +3.094758
| 27>  C   -0.712736   +1.355154   +1.860073
| 28>  C   -0.745055   +1.229687   +0.322710
| 29>  O   -1.613030   +0.930729   +2.568856
| 30>  N   +0.000000   +0.000000   +0.000000
| 31>  H   -0.260873   +2.074965   -0.189474
| 32>  H   -1.783748   +1.122823   -0.014758
| 33>  H   -0.494575   -0.884235   +0.124388
| 34>  C   +1.343447   +0.000000   +0.000000
| 35>  C   +2.067656   -1.358094   +0.059521
| 36>  O   +2.051007   +1.019310   +0.000000
| 37>  H   +2.320539   -1.721554   -0.949783
| 38>  H   +1.514120   -2.132676   +0.609740
| 39>  O   +2.135365   +0.440883   +5.243407
| 40>  H   +2.737009   -0.326225   +5.358033
| 41>  N   +3.331183   -1.027617   +0.791741
| 42>  H   +4.090524   -1.710129   +0.667218
| 43>  H   +3.590379   -0.076868   +0.429232
| 44>  H   +3.098768   -0.874117   +1.810113
| 45> *
| 46>
| 47>                          ****END OF INPUT****
 Total Charge           Charge          ....    1
 Multiplicity           Mult            ....    1
 Number of Electrons    NEL             ....  100
Dispersion correction           -0.044364641
FINAL SINGLE POINT ENERGY      -701.350687628200
Dispersion correction            ... done
Dispersion correction in the Hessian             ... done   (      0.5 sec)
Dispersion correction           -0.044598624
FINAL SINGLE POINT ENERGY      -701.354292813446
Dispersion correction            ... done
Dispersion correction           -0.044571201
FINAL SINGLE POINT ENERGY      -701.354497336704
FINAL SINGLE POINT ENERGY      -701.354710214765
FINAL SINGLE POINT ENERGY      -701.354849886679
FINAL SINGLE POINT ENERGY      -701.354949603096
FINAL SINGLE POINT ENERGY      -701.354996623429
FINAL SINGLE POINT ENERGY      -701.355008099725
FINAL SINGLE POINT ENERGY      -701.355013148909
FINAL SINGLE POINT ENERGY      -701.355014888419
FINAL SINGLE POINT ENERGY      -701.355015877547
Dispersion correction            ... done
Dispersion correction in the Hessian             ... done   (      0.5 sec)
Dispersion correction           -0.044921850
FINAL SINGLE POINT ENERGY      -701.355016157011
Dispersion correction            ... done
                    ***********************HURRAY********************

CARTESIAN COORDINATES (ANGSTROEM)
---------------------------------
  N      0.446920    2.004701    2.360363
  H      1.081153    2.393194    1.682593
  C      0.888025    1.839910    3.717254
  C      1.643005    0.538768    3.937098
  H      0.036047    1.850578    4.396281
  H      1.549387    2.659605    4.004170
  O      2.081450   -0.179091    3.056473
  C     -0.585352    1.237730    1.913543
  C     -0.737544    1.159967    0.394483
  O     -1.266854    0.552957    2.647679
  N      0.011388   -0.038500    0.005585
  H     -0.332438    2.020616   -0.133150
  H     -1.785195    1.024780    0.139911
  H     -0.434017   -0.920228    0.205532
  C      1.348290    0.003619   -0.030984
  C      2.090350   -1.335005    0.031121
  O      2.022104    1.022343   -0.077570
  H      2.335247   -1.688863   -0.970016
  H      1.552216   -2.104083    0.581087
  O      1.798935    0.282469    5.223995
  H      2.291213   -0.541833    5.338118
  N      3.351690   -1.009461    0.757359
  H      4.064137   -1.730823    0.676385
  H      3.682375   -0.115256    0.370262
  H      3.118073   -0.822931    1.749318

 Multiplicity           Mult            ....    1
 Number of Electrons    NEL             ....  100
 Basis Dimension        Dim             ....  571

ORBITAL ENERGIES
----------------

  NO   OCC          E(Eh)            E(eV)
   0   2.0000     -19.409571      -528.1613
   1   2.0000     -19.363436      -526.9059
   2   2.0000     -19.352896      -526.6191
   3   2.0000     -19.308065      -525.3992
   4   2.0000     -14.698571      -399.9685
   5   2.0000     -14.603061      -397.3695
   6   2.0000     -14.567970      -396.4146
   7   2.0000     -10.564172      -287.4657
   8   2.0000     -10.550280      -287.0877
   9   2.0000     -10.514022      -286.1011
  10   2.0000     -10.503992      -285.8282
  11   2.0000     -10.454444      -284.4799
  12   2.0000     -10.453297      -284.4487
  13   2.0000      -1.399591       -38.0848
  14   2.0000      -1.357634       -36.9431
  15   2.0000      -1.310022       -35.6475
  16   2.0000      -1.306844       -35.5610
  17   2.0000      -1.297558       -35.3084
  18   2.0000      -1.226830       -33.3837
  19   2.0000      -1.194744       -32.5106
  20   2.0000      -1.062803       -28.9203
  21   2.0000      -1.026630       -27.9360
  22   2.0000      -0.985886       -26.8273
  23   2.0000      -0.898139       -24.4396
  24   2.0000      -0.893112       -24.3028
  25   2.0000      -0.878838       -23.9144
  26   2.0000      -0.865775       -23.5589
  27   2.0000      -0.836168       -22.7533
  28   2.0000      -0.808227       -21.9930
  29   2.0000      -0.788809       -21.4646
  30   2.0000      -0.776768       -21.1369
  31   2.0000      -0.768388       -20.9089
  32   2.0000      -0.756401       -20.5827
  33   2.0000      -0.739065       -20.1110
  34   2.0000      -0.737251       -20.0616
  35   2.0000      -0.718462       -19.5503
  36   2.0000      -0.710536       -19.3347
  37   2.0000      -0.689480       -18.7617
  38   2.0000      -0.669488       -18.2177
  39   2.0000      -0.661216       -17.9926
  40   2.0000      -0.647626       -17.6228
  41   2.0000      -0.646761       -17.5993
  42   2.0000      -0.628877       -17.1126
  43   2.0000      -0.622282       -16.9332
  44   2.0000      -0.586749       -15.9663
  45   2.0000      -0.554735       -15.0951
  46   2.0000      -0.550359       -14.9760
  47   2.0000      -0.539720       -14.6865
  48   2.0000      -0.502855       -13.6834
  49   2.0000      -0.485517       -13.2116
  50   0.0000      -0.079774        -2.1708
  51   0.0000      -0.061369        -1.6699
  52   0.0000      -0.055402        -1.5076
  53   0.0000      -0.027973        -0.7612
  54   0.0000      -0.021841        -0.5943

MULLIKEN ATOMIC CHARGES
-----------------------
   0 N :   -0.193960
   1 H :    0.187914
   2 C :   -0.080724
   3 C :    0.367197
   4 H :    0.154437
   5 H :    0.147209
   6 O :   -0.434262
   7 C :    0.242015
   8 C :   -0.105035
   9 O :   -0.346824
  10 N :   -0.161090
  11 H :    0.143736
  12 H :    0.151917
  13 H :    0.192197
  14 C :    0.276536
  15 C :   -0.158671
  16 O :   -0.401391
  17 H :    0.174457
  18 H :    0.161281
  19 O :   -0.216186
  20 H :    0.238673
  21 N :   -0.056474
  22 H :    0.232625
  23 H :    0.233490
  24 H :    0.250932
Sum of atomic charges:    1.0000000

LOEWDIN ATOMIC CHARGES
----------------------
   0 N :    0.326891
   1 H :   -0.023637
   2 C :   -0.038586
   3 C :   -0.392987
   4 H :    0.049954
   5 H :    0.043678
   6 O :    0.084289
   7 C :   -0.392646
   8 C :   -0.007659
   9 O :    0.101780
  10 N :    0.349976
  11 H :    0.031407
  12 H :    0.038739
  13 H :   -0.005139
  14 C :   -0.400514
  15 C :    0.037481
  16 O :    0.088761
  17 H :    0.039868
  18 H :    0.034346
  19 O :    0.415454
  20 H :   -0.073829
  21 N :    0.607865
  22 H :    0.043380
  23 H :    0.042358
  24 H :   -0.001230

  Mayer bond orders larger than 0.100000
B(  0-N ,  1-H ) :   0.9545 B(  0-N ,  2-C ) :   0.9575 B(  0-N ,  7-C ) :   1.2157
B(  2-C ,  3-C ) :   0.9278 B(  2-C ,  4-H ) :   0.9711 B(  2-C ,  5-H ) :   0.9698
B(  3-C ,  6-O ) :   1.8344 B(  3-C , 19-O ) :   1.3325 B(  6-O , 24-H ) :   0.1084
B(  7-C ,  8-C ) :   0.9228 B(  7-C ,  9-O ) :   2.0274 B(  8-C , 10-N ) :   0.8717
B(  8-C , 11-H ) :   0.9977 B(  8-C , 12-H ) :   0.9941 B( 10-N , 13-H ) :   0.9597
B( 10-N , 14-C ) :   1.3403 B( 14-C , 15-C ) :   0.9335 B( 14-C , 16-O ) :   1.8880
B( 15-C , 17-H ) :   0.9769 B( 15-C , 18-H ) :   0.9928 B( 15-C , 21-N ) :   0.8925
B( 19-O , 20-H ) :   0.9491 B( 21-N , 22-H ) :   0.9388 B( 21-N , 23-H ) :   0.8990
B( 21-N , 24-H ) :   0.8816

Dispersion correction           -0.044920967
FINAL SINGLE POINT ENERGY      -701.355016138747

DIPOLE MOMENT
-------------
                                X             Y             Z
Electronic contribution:     -1.40891       1.06378       2.80750
Nuclear contribution   :      4.22973      -3.05709      -4.06493
                        -----------------------------------------
Total Dipole Moment    :      2.82082      -1.99331      -1.25742
                        -----------------------------------------
Magnitude (a.u.)       :      3.67579
Magnitude (Debye)      :      9.34310

Dispersion correction in the Hessian             ... done   (      0.5 sec)

VIBRATIONAL FREQUENCIES
-----------------------

Scaling factor for frequencies =  1.000000000  (already applied!)

   0:         0.00 cm**-1
   1:         0.00 cm**-1
   2:         0.00 cm**-1
   3:         0.00 cm**-1
   4:         0.00 cm**-1
   5:         0.00 cm**-1
   6:        35.99 cm**-1
   7:        54.35 cm**-1
   8:        74.66 cm**-1
   9:        84.40 cm**-1
  10:       110.86 cm**-1
  11:       125.28 cm**-1
  12:       182.96 cm**-1
  13:       207.51 cm**-1
  14:       256.39 cm**-1
  15:       266.15 cm**-1
  16:       292.65 cm**-1
  17:       331.74 cm**-1
  18:       366.89 cm**-1
  19:       397.43 cm**-1
  20:       440.52 cm**-1
  21:       490.10 cm**-1
  22:       516.83 cm**-1
  23:       526.88 cm**-1
  24:       569.43 cm**-1
  25:       627.70 cm**-1
  26:       646.12 cm**-1
  27:       674.73 cm**-1
  28:       703.19 cm**-1
  29:       714.27 cm**-1
  30:       812.57 cm**-1
  31:       873.39 cm**-1
  32:       887.37 cm**-1
  33:       902.69 cm**-1
  34:       926.70 cm**-1
  35:      1003.16 cm**-1
  36:      1023.85 cm**-1
  37:      1064.22 cm**-1
  38:      1073.71 cm**-1
  39:      1126.85 cm**-1
  40:      1137.49 cm**-1
  41:      1161.26 cm**-1
  42:      1209.47 cm**-1
  43:      1243.76 cm**-1
  44:      1299.83 cm**-1
  45:      1303.28 cm**-1
  46:      1319.90 cm**-1
  47:      1348.01 cm**-1
  48:      1351.61 cm**-1
  49:      1386.19 cm**-1
  50:      1428.09 cm**-1
  51:      1448.60 cm**-1
  52:      1470.62 cm**-1
  53:      1490.10 cm**-1
  54:      1492.49 cm**-1
  55:      1516.83 cm**-1
  56:      1574.82 cm**-1
  57:      1593.18 cm**-1
  58:      1613.95 cm**-1
  59:      1682.88 cm**-1
  60:      1778.76 cm**-1
  61:      1789.34 cm**-1
  62:      1806.60 cm**-1
  63:      3111.97 cm**-1
  64:      3123.91 cm**-1
  65:      3139.42 cm**-1
  66:      3167.31 cm**-1
  67:      3191.66 cm**-1
  68:      3205.95 cm**-1
  69:      3239.96 cm**-1
  70:      3382.31 cm**-1
  71:      3559.13 cm**-1
  72:      3651.31 cm**-1
  73:      3668.75 cm**-1
  74:      3803.27 cm**-1

IR SPECTRUM
-----------

 Mode   freq       eps      Int      T**2         TX        TY        TZ
       cm**-1   L/(mol*cm) km/mol    a.u.
----------------------------------------------------------------------------
  6:     35.99   0.000444    2.24  0.003851  ( 0.040661 -0.046561  0.005475)
  7:     54.35   0.001784    9.02  0.010245  (-0.081438  0.053774  0.026860)
  8:     74.66   0.000279    1.41  0.001165  ( 0.024078 -0.004463  0.023774)
  9:     84.40   0.000424    2.14  0.001566  (-0.024354  0.013497  0.028120)
 10:    110.86   0.005669   28.65  0.015958  (-0.005580  0.094458  0.083695)
 11:    125.28   0.001537    7.77  0.003828  ( 0.019868 -0.016190  0.056309)
 12:    182.96   0.009865   49.85  0.016825  ( 0.027455 -0.004749 -0.126685)
 13:    207.51   0.000247    1.25  0.000372  (-0.005109  0.006005  0.017599)
 14:    256.39   0.001260    6.37  0.001534  (-0.016424 -0.019703 -0.029599)
 15:    266.15   0.003502   17.70  0.004107  ( 0.041044 -0.047100 -0.014269)
 16:    292.65   0.001669    8.44  0.001780  ( 0.028356  0.027861  0.014129)
 17:    331.74   0.003113   15.73  0.002929  ( 0.047776 -0.024032  0.008275)
 18:    366.89   0.007138   36.07  0.006071  (-0.060920  0.048547  0.001773)
 19:    397.43   0.010285   51.98  0.008076  (-0.074793  0.047051 -0.016383)
 20:    440.52   0.001552    7.84  0.001099  (-0.011516 -0.029770  0.008970)
 21:    490.10   0.006085   30.75  0.003874  (-0.005767 -0.007056  0.061574)
 22:    516.83   0.007515   37.98  0.004538  ( 0.049210 -0.029683  0.035143)
 23:    526.88   0.021235  107.31  0.012577  (-0.011190 -0.105143 -0.037380)
 24:    569.43   0.012253   61.92  0.006715  ( 0.034075  0.012108  0.073534)
 25:    627.70   0.015092   76.27  0.007503  ( 0.026628  0.081623 -0.011484)
 26:    646.12   0.010747   54.31  0.005191  ( 0.044375  0.029542  0.048466)
 27:    674.73   0.013107   66.24  0.006062  (-0.073776 -0.024699 -0.003014)
 28:    703.19   0.000119    0.60  0.000053  ( 0.004509 -0.002114 -0.005307)
 29:    714.27   0.003349   16.92  0.001463  (-0.017508  0.010475 -0.032354)
 30:    812.57   0.001597    8.07  0.000613  ( 0.009525 -0.013720 -0.018283)
 31:    873.39   0.002711   13.70  0.000969  (-0.029888  0.007942  0.003488)
 32:    887.37   0.006332   32.00  0.002227  (-0.000762 -0.004434 -0.046973)
 33:    902.69   0.001799    9.09  0.000622  ( 0.013866  0.010882  0.017637)
 34:    926.70   0.005744   29.03  0.001934  ( 0.001367 -0.001299 -0.043941)
 35:   1003.16   0.001314    6.64  0.000409  (-0.015355  0.009869 -0.008696)
 36:   1023.85   0.000902    4.56  0.000275  (-0.005861  0.015045 -0.003760)
 37:   1064.22   0.002198   11.11  0.000645  (-0.000044  0.024451  0.006836)
 38:   1073.71   0.001351    6.83  0.000393  (-0.011029  0.015974 -0.003967)
 39:   1126.85   0.000872    4.41  0.000241  (-0.004892 -0.014374  0.003298)
 40:   1137.49   0.005913   29.88  0.001622  ( 0.016161 -0.027698 -0.024370)
 41:   1161.26   0.003363   17.00  0.000904  (-0.008817  0.013772 -0.025225)
 42:   1209.47   0.042271  213.62  0.010907  (-0.029022  0.028105 -0.096305)
 43:   1243.76   0.004607   23.28  0.001156  ( 0.027412  0.016606  0.011348)
 44:   1299.83   0.005684   28.72  0.001365  ( 0.026509 -0.025710  0.000938)
 45:   1303.28   0.004971   25.12  0.001190  ( 0.028698 -0.017860 -0.006917)
 46:   1319.90   0.006213   31.40  0.001469  ( 0.018436 -0.000680  0.033595)
 47:   1348.01   0.001107    5.59  0.000256  ( 0.007349 -0.004179 -0.013591)
 48:   1351.61   0.006949   35.12  0.001604  ( 0.012055 -0.006598  0.037624)
 49:   1386.19   0.000635    3.21  0.000143  (-0.000820  0.010071  0.006399)
 50:   1428.09   0.001113    5.62  0.000243  (-0.003569  0.015180 -0.000071)
 51:   1448.60   0.006498   32.84  0.001400  ( 0.022286 -0.029669 -0.004788)
 52:   1470.62   0.017517   88.52  0.003717  ( 0.005764 -0.015261  0.058744)
 53:   1490.10   0.004443   22.45  0.000930  ( 0.010140  0.013259 -0.025531)
 54:   1492.49   0.005177   26.16  0.001082  ( 0.018169  0.025585  0.009883)
 55:   1516.83   0.040600  205.18  0.008353  (-0.091353  0.000757 -0.002630)
 56:   1574.82   0.024613  124.38  0.004877  ( 0.030528  0.043738  0.045081)
 57:   1593.18   0.040060  202.45  0.007847  ( 0.086160 -0.015092  0.013975)
 58:   1613.95   0.005224   26.40  0.001010  ( 0.001604  0.031647 -0.002431)
 59:   1682.88   0.020512  103.66  0.003804  (-0.036762  0.036049  0.033951)
 60:   1778.76   0.040683  205.60  0.007137  (-0.028569 -0.055757 -0.056677)
 61:   1789.34   0.103434  522.71  0.018039  ( 0.077631 -0.009588 -0.109181)
 62:   1806.60   0.048182  243.49  0.008323  (-0.069697 -0.058634  0.005200)
 63:   3111.97   0.001199    6.06  0.000120  ( 0.009085 -0.003521  0.005025)
 64:   3123.91   0.000183    0.93  0.000018  ( 0.003158  0.000040  0.002884)
 65:   3139.42   0.000435    2.20  0.000043  (-0.004168  0.005043 -0.000668)
 66:   3167.31   0.000385    1.95  0.000038  ( 0.005721  0.002246 -0.000456)
 67:   3191.66   0.000138    0.69  0.000013  ( 0.002027 -0.000281 -0.003042)
 68:   3205.95   0.000005    0.02  0.000000  ( 0.000013 -0.000523  0.000442)
 69:   3239.96   0.111713  564.55  0.010760  ( 0.027001 -0.033985 -0.094212)
 70:   3382.31   0.020243  102.30  0.001868  (-0.011199 -0.030501  0.028495)
 71:   3559.13   0.026814  135.51  0.002351  (-0.032098  0.035276  0.008741)
 72:   3651.31   0.012134   61.32  0.001037  (-0.022853 -0.022600  0.002002)
 73:   3668.75   0.012528   63.31  0.001066  (-0.022107 -0.013570  0.019817)
 74:   3803.27   0.023718  119.86  0.001946  ( 0.019609 -0.031320  0.024097)

--------------------------
THERMOCHEMISTRY AT 298.15K
--------------------------

Temperature         ... 298.15 K
Pressure            ... 1.00 atm
Total Mass          ... 190.18 AMU

Throughout the following assumptions are being made:
  (1) The electronic state is orbitally nondegenerate
  (2) There are no thermally accessible electronically excited states
  (3) Hindered rotations indicated by low frequency modes are not
      treated as such but are treated as vibrations and this may
      cause some error
  (4) All equations used are the standard statistical mechanics
      equations for an ideal gas
  (5) All vibrations are strictly harmonic

freq.      35.99  E(vib)   ...       0.54
freq.      54.35  E(vib)   ...       0.52
freq.      74.66  E(vib)   ...       0.49
freq.      84.40  E(vib)   ...       0.48
freq.     110.86  E(vib)   ...       0.45
freq.     125.28  E(vib)   ...       0.43
freq.     182.96  E(vib)   ...       0.37
freq.     207.51  E(vib)   ...       0.34
freq.     256.39  E(vib)   ...       0.30
freq.     266.15  E(vib)   ...       0.29
freq.     292.65  E(vib)   ...       0.27
freq.     331.74  E(vib)   ...       0.24
freq.     366.89  E(vib)   ...       0.22
freq.     397.43  E(vib)   ...       0.20
freq.     440.52  E(vib)   ...       0.17
freq.     490.10  E(vib)   ...       0.15
freq.     516.83  E(vib)   ...       0.13
freq.     526.88  E(vib)   ...       0.13
freq.     569.43  E(vib)   ...       0.11
freq.     627.70  E(vib)   ...       0.09
freq.     646.12  E(vib)   ...       0.09
freq.     674.73  E(vib)   ...       0.08
freq.     703.19  E(vib)   ...       0.07
freq.     714.27  E(vib)   ...       0.07
freq.     812.57  E(vib)   ...       0.05
freq.     873.39  E(vib)   ...       0.04
freq.     887.37  E(vib)   ...       0.04
freq.     902.69  E(vib)   ...       0.03
freq.     926.70  E(vib)   ...       0.03
freq.    1003.16  E(vib)   ...       0.02
freq.    1023.85  E(vib)   ...       0.02
freq.    1064.22  E(vib)   ...       0.02
freq.    1073.71  E(vib)   ...       0.02
freq.    1126.85  E(vib)   ...       0.01
freq.    1137.49  E(vib)   ...       0.01
freq.    1161.26  E(vib)   ...       0.01
freq.    1209.47  E(vib)   ...       0.01
freq.    1243.76  E(vib)   ...       0.01
freq.    1299.83  E(vib)   ...       0.01
freq.    1303.28  E(vib)   ...       0.01
freq.    1319.90  E(vib)   ...       0.01
freq.    1348.01  E(vib)   ...       0.01
freq.    1351.61  E(vib)   ...       0.01
freq.    1386.19  E(vib)   ...       0.00
freq.    1428.09  E(vib)   ...       0.00
freq.    1448.60  E(vib)   ...       0.00
freq.    1470.62  E(vib)   ...       0.00
freq.    1490.10  E(vib)   ...       0.00
freq.    1492.49  E(vib)   ...       0.00
freq.    1516.83  E(vib)   ...       0.00
freq.    1574.82  E(vib)   ...       0.00
freq.    1593.18  E(vib)   ...       0.00
freq.    1613.95  E(vib)   ...       0.00
freq.    1682.88  E(vib)   ...       0.00
freq.    1778.76  E(vib)   ...       0.00
freq.    1789.34  E(vib)   ...       0.00
freq.    1806.60  E(vib)   ...       0.00
freq.    3111.97  E(vib)   ...       0.00
freq.    3123.91  E(vib)   ...       0.00
freq.    3139.42  E(vib)   ...       0.00
freq.    3167.31  E(vib)   ...       0.00
freq.    3191.66  E(vib)   ...       0.00
freq.    3205.95  E(vib)   ...       0.00
freq.    3239.96  E(vib)   ...       0.00
freq.    3382.31  E(vib)   ...       0.00
freq.    3559.13  E(vib)   ...       0.00
freq.    3651.31  E(vib)   ...       0.00
freq.    3668.75  E(vib)   ...       0.00
freq.    3803.27  E(vib)   ...       0.00

------------
INNER ENERGY
------------

The inner energy is: U= E(el) + E(ZPE) + E(vib) + E(rot) + E(trans)
    E(el)   - is the total energy from the electronic structure calculation
              = E(kin-el) + E(nuc-el) + E(el-el) + E(nuc-nuc)
    E(ZPE)  - the the zero temperature vibrational energy from the frequency calculation
    E(vib)  - the the finite temperature correction to E(ZPE) due to population
              of excited vibrational states
    E(rot)  - is the rotational thermal energy
    E(trans)- is the translational thermal energy

Summary of contributions to the inner energy U:
Electronic energy                ...   -701.35501614 Eh
Zero point energy                ...      0.20978172 Eh     131.64 kcal/mol
Thermal vibrational correction   ...      0.01052950 Eh       6.61 kcal/mol
Thermal rotational correction    ...      0.00141627 Eh       0.89 kcal/mol
Thermal translational correction ...      0.00141627 Eh       0.89 kcal/mol
-----------------------------------------------------------------------
Total thermal energy                   -701.13187237 Eh

Summary of corrections to the electronic energy:
(perhaps to be used in another calculation)
Total thermal correction                  0.01336204 Eh       8.38 kcal/mol
Non-thermal (ZPE) correction              0.20978172 Eh     131.64 kcal/mol
-----------------------------------------------------------------------
Total correction                          0.22314377 Eh     140.02 kcal/mol

--------
ENTHALPY
--------

The enthalpy is H = U + kB*T
                kB is Boltzmann's constant
Total free energy                 ...   -701.13187237 Eh
Thermal Enthalpy correction       ...      0.00094421 Eh       0.59 kcal/mol
-----------------------------------------------------------------------
Total Enthalpy                    ...   -701.13092816 Eh

Note: Only C1 symmetry has been detected, increase convergence thresholds
      if your molecule has a higher symmetry. Symmetry factor of 1.0 is
      used for the rotational entropy correction.

Note: Rotational entropy computed according to Herzberg
Infrared and Raman Spectra, Chapter V,1, Van Nostrand Reinhold, 1945
Point Group:  C1, Symmetry Number:   1
Rotational constants in cm-1:     0.032797     0.023563     0.016348

Vibrational entropy computed according to the QRRHO of S. Grimme
Chem.Eur.J. 2012 18 9955

-------
ENTROPY
-------

The entropy contributions are T*S = T*(S(el)+S(vib)+S(rot)+S(trans))
     S(el)   - electronic entropy
     S(vib)  - vibrational entropy
     S(rot)  - rotational entropy
     S(trans)- translational entropy
The entropies will be listed as multiplied by the temperature to get
units of energy

Electronic entropy                ...      0.00000000 Eh      0.00 kcal/mol
Vibrational entropy               ...      0.01854707 Eh     11.64 kcal/mol
Rotational entropy                ...      0.01483559 Eh      9.31 kcal/mol
Translational entropy             ...      0.01978162 Eh     12.41 kcal/mol
-----------------------------------------------------------------------

                             ****ORCA TERMINATED NORMALLY****
TOTAL RUN TIME: 0 days 2 hours 31 minutes 53 seconds 584 msec
