                         Program Version 5.0.2 -  RELEASE  -
|  1> # GGG-H_tt_015 (old 072)
|  2> ! wB97X-D3BJ Opt Freq def2-TZVPP def2/J RIJCOSX VeryTightSCF
|  3> ! PAL8 defgrid3 VeryTightOpt
|  4>
|  5> %maxcore 4096
|  6>
|  7> %geom
|  8>   MaxIter 300
|  9>   # MaxStep 0.1
| 10>   Calc_Hess true
| 11>   Recalc_Hess 10
| 12> end
| 13>
| 14> %chelpg
| 15>   grid 0.1
| 16>   rmax 3.0
| 17> end
| 18>
| 19> * xyz 1 1
| 20>  N   -3.275238   +1.529171   -0.020921
| 21>  H   -3.103290   +2.541412   -0.023509
| 22>  C   -4.680650   +1.163086   -0.031546
| 23>  C   -5.479018   +2.458837   -0.048816
| 24>  H   -4.935633   +0.551824   -0.916502
| 25>  H   -4.953038   +0.565635   +0.857732
| 26>  O   -4.960374   +3.559646   -0.050924
| 27>  C   -2.283143   +0.624495   -0.012473
| 28>  C   -0.843526   +1.185678   -0.001686
| 29>  O   -2.454337   -0.601149   -0.012209
| 30>  N   +0.000000   +0.000000   +0.000000
| 31>  H   -0.661235   +1.804540   +0.895200
| 32>  H   -0.648498   +1.811250   -0.891091
| 33>  H   -0.594270   -0.855489   -0.002137
| 34>  C   +1.321629   +0.000000   +0.000000
| 35>  C   +2.057436   -1.369809   +0.000614
| 36>  O   +2.058201   +1.010824   +0.000000
| 37>  H   +1.824454   -1.965205   -0.894950
| 38>  H   +1.825584   -1.962552   +0.898241
| 39>  O   -6.797726   +2.229489   -0.060767
| 40>  H   -7.251897   +3.099851   -0.071247
| 41>  N   +3.496404   -0.956002   -0.000835
| 42>  H   +4.017887   -1.250649   -0.837498
| 43>  H   +3.320903   +0.152587   -0.000322
| 44>  H   +4.019650   -1.250869   +0.834655
| 45> *
| 46>
| 47>                          ****END OF INPUT****
 Total Charge           Charge          ....    1
 Multiplicity           Mult            ....    1
 Number of Electrons    NEL             ....  100
Dispersion correction           -0.039560991
FINAL SINGLE POINT ENERGY      -701.344168160394
Dispersion correction            ... done
Dispersion correction in the Hessian             ... done   (      0.6 sec)
Dispersion correction           -0.039835108
FINAL SINGLE POINT ENERGY      -701.347610224632
Dispersion correction            ... done
Dispersion correction           -0.040004739
FINAL SINGLE POINT ENERGY      -701.347327009939
FINAL SINGLE POINT ENERGY      -701.348251783892
FINAL SINGLE POINT ENERGY      -701.348348747103
FINAL SINGLE POINT ENERGY      -701.348371832332
Dispersion correction           -0.039857298
FINAL SINGLE POINT ENERGY      -701.348372592145
Dispersion correction            ... done
Dispersion correction           -0.039856700
FINAL SINGLE POINT ENERGY      -701.348372667471
Dispersion correction            ... done
                    ***********************HURRAY********************

CARTESIAN COORDINATES (ANGSTROEM)
---------------------------------
  N     -3.260926    1.538048   -0.022094
  H     -3.052630    2.526601   -0.023655
  C     -4.664282    1.188445   -0.031774
  C     -5.464444    2.472112   -0.045791
  H     -4.921507    0.591220   -0.909347
  H     -4.936543    0.601357    0.848137
  O     -4.969361    3.569222   -0.047088
  C     -2.301393    0.608950   -0.015185
  C     -0.863109    1.135937   -0.006800
  O     -2.509722   -0.596239   -0.015111
  N     -0.014524   -0.040040   -0.003122
  H     -0.681772    1.748099    0.878937
  H     -0.671623    1.749688   -0.889269
  H     -0.545958   -0.908581   -0.004529
  C      1.300814    0.008290   -0.000717
  C      2.055699   -1.337122    0.001799
  O      1.991130    1.028665   -0.000256
  H      1.832169   -1.925630   -0.885691
  H      1.830467   -1.923008    0.890597
  O     -6.775445    2.230885   -0.056284
  H     -7.239957    3.078985   -0.064853
  N      3.492509   -0.930132    0.002702
  H      4.000376   -1.236379   -0.823762
  H      3.390870    0.133483    0.002386
  H      3.999438   -1.236257    0.829778

 Multiplicity           Mult            ....    1
 Number of Electrons    NEL             ....  100
 Basis Dimension        Dim             ....  571

ORBITAL ENERGIES
----------------

  NO   OCC          E(Eh)            E(eV)
   0   2.0000     -19.364417      -526.9326
   1   2.0000     -19.361284      -526.8473
   2   2.0000     -19.309778      -525.4458
   3   2.0000     -19.308100      -525.4001
   4   2.0000     -14.703732      -400.1089
   5   2.0000     -14.598716      -397.2513
   6   2.0000     -14.558147      -396.1473
   7   2.0000     -10.553143      -287.1656
   8   2.0000     -10.520122      -286.2671
   9   2.0000     -10.514723      -286.1202
  10   2.0000     -10.504771      -285.8494
  11   2.0000     -10.455544      -284.5098
  12   2.0000     -10.429737      -283.8076
  13   2.0000      -1.364669       -37.1345
  14   2.0000      -1.351694       -36.7815
  15   2.0000      -1.308441       -35.6045
  16   2.0000      -1.300939       -35.4004
  17   2.0000      -1.260521       -34.3005
  18   2.0000      -1.226715       -33.3806
  19   2.0000      -1.185230       -32.2517
  20   2.0000      -1.066389       -29.0179
  21   2.0000      -1.019129       -27.7319
  22   2.0000      -0.976802       -26.5801
  23   2.0000      -0.891715       -24.2648
  24   2.0000      -0.886584       -24.1252
  25   2.0000      -0.876329       -23.8461
  26   2.0000      -0.855196       -23.2711
  27   2.0000      -0.830568       -22.6009
  28   2.0000      -0.808334       -21.9959
  29   2.0000      -0.774581       -21.0774
  30   2.0000      -0.758531       -20.6407
  31   2.0000      -0.744910       -20.2700
  32   2.0000      -0.728802       -19.8317
  33   2.0000      -0.728443       -19.8219
  34   2.0000      -0.716268       -19.4906
  35   2.0000      -0.709763       -19.3136
  36   2.0000      -0.690407       -18.7869
  37   2.0000      -0.688278       -18.7290
  38   2.0000      -0.665814       -18.1177
  39   2.0000      -0.664322       -18.0771
  40   2.0000      -0.639547       -17.4030
  41   2.0000      -0.632697       -17.2166
  42   2.0000      -0.606515       -16.5041
  43   2.0000      -0.597951       -16.2711
  44   2.0000      -0.561368       -15.2756
  45   2.0000      -0.537579       -14.6283
  46   2.0000      -0.531322       -14.4580
  47   2.0000      -0.507451       -13.8085
  48   2.0000      -0.495262       -13.4768
  49   2.0000      -0.485237       -13.2040
  50   0.0000      -0.085021        -2.3135
  51   0.0000      -0.065544        -1.7835
  52   0.0000      -0.028050        -0.7633
  53   0.0000      -0.025127        -0.6837
  54   0.0000      -0.013371        -0.3639

MULLIKEN ATOMIC CHARGES
-----------------------
   0 N :   -0.195601
   1 H :    0.185284
   2 C :   -0.059720
   3 C :    0.303488
   4 H :    0.135146
   5 H :    0.135153
   6 O :   -0.323443
   7 C :    0.285125
   8 C :   -0.104691
   9 O :   -0.395623
  10 N :   -0.170576
  11 H :    0.144490
  12 H :    0.144385
  13 H :    0.192511
  14 C :    0.266832
  15 C :   -0.158435
  16 O :   -0.364613
  17 H :    0.170153
  18 H :    0.170194
  19 O :   -0.252908
  20 H :    0.243125
  21 N :   -0.056043
  22 H :    0.236297
  23 H :    0.233162
  24 H :    0.236306
Sum of atomic charges:    1.0000000

LOEWDIN ATOMIC CHARGES
----------------------
   0 N :    0.337581
   1 H :   -0.017775
   2 C :   -0.026909
   3 C :   -0.433328
   4 H :    0.039949
   5 H :    0.039921
   6 O :    0.114819
   7 C :   -0.384787
   8 C :   -0.010600
   9 O :    0.080543
  10 N :    0.357152
  11 H :    0.035189
  12 H :    0.035171
  13 H :   -0.018607
  14 C :   -0.381453
  15 C :    0.044742
  16 O :    0.122841
  17 H :    0.037409
  18 H :    0.037437
  19 O :    0.382834
  20 H :   -0.076567
  21 N :    0.599209
  22 H :    0.046154
  23 H :   -0.007057
  24 H :    0.046131

  Mayer bond orders larger than 0.100000
B(  0-N ,  1-H ) :   0.9366 B(  0-N ,  2-C ) :   0.9010 B(  0-N ,  7-C ) :   1.3343
B(  2-C ,  3-C ) :   0.9562 B(  2-C ,  4-H ) :   0.9744 B(  2-C ,  5-H ) :   0.9741
B(  3-C ,  6-O ) :   2.0367 B(  3-C , 19-O ) :   1.2718 B(  7-C ,  8-C ) :   0.9251
B(  7-C ,  9-O ) :   1.9148 B(  8-C , 10-N ) :   0.8935 B(  8-C , 11-H ) :   0.9845
B(  8-C , 12-H ) :   0.9850 B(  9-O , 13-H ) :   0.1047 B( 10-N , 13-H ) :   0.9056
B( 10-N , 14-C ) :   1.4145 B( 14-C , 15-C ) :   0.9096 B( 14-C , 16-O ) :   1.8426
B( 15-C , 17-H ) :   0.9861 B( 15-C , 18-H ) :   0.9860 B( 15-C , 21-N ) :   0.8990
B( 16-O , 23-H ) :   0.2076 B( 19-O , 20-H ) :   0.9498 B( 21-N , 22-H ) :   0.9407
B( 21-N , 23-H ) :   0.8110 B( 21-N , 24-H ) :   0.9407

Dispersion correction           -0.039856549
FINAL SINGLE POINT ENERGY      -701.348372683888

DIPOLE MOMENT
-------------
                                X             Y             Z
Electronic contribution:     -6.60582       3.77704      -0.04289
Nuclear contribution   :     12.30028      -6.42972       0.06778
                        -----------------------------------------
Total Dipole Moment    :      5.69446      -2.65268       0.02489
                        -----------------------------------------
Magnitude (a.u.)       :      6.28205
Magnitude (Debye)      :     15.96771

Dispersion correction in the Hessian             ... done   (      0.6 sec)

VIBRATIONAL FREQUENCIES
-----------------------

Scaling factor for frequencies =  1.000000000  (already applied!)

   0:         0.00 cm**-1
   1:         0.00 cm**-1
   2:         0.00 cm**-1
   3:         0.00 cm**-1
   4:         0.00 cm**-1
   5:         0.00 cm**-1
   6:        19.18 cm**-1
   7:        38.62 cm**-1
   8:        57.21 cm**-1
   9:        63.69 cm**-1
  10:        79.28 cm**-1
  11:        96.91 cm**-1
  12:       134.81 cm**-1
  13:       168.83 cm**-1
  14:       190.96 cm**-1
  15:       217.30 cm**-1
  16:       287.19 cm**-1
  17:       316.53 cm**-1
  18:       317.29 cm**-1
  19:       395.42 cm**-1
  20:       471.67 cm**-1
  21:       513.53 cm**-1
  22:       542.51 cm**-1
  23:       568.89 cm**-1
  24:       570.33 cm**-1
  25:       634.36 cm**-1
  26:       638.58 cm**-1
  27:       664.61 cm**-1
  28:       693.96 cm**-1
  29:       739.88 cm**-1
  30:       750.97 cm**-1
  31:       890.66 cm**-1
  32:       931.63 cm**-1
  33:       965.37 cm**-1
  34:      1008.55 cm**-1
  35:      1016.71 cm**-1
  36:      1028.23 cm**-1
  37:      1028.77 cm**-1
  38:      1111.57 cm**-1
  39:      1114.10 cm**-1
  40:      1121.39 cm**-1
  41:      1167.37 cm**-1
  42:      1207.63 cm**-1
  43:      1253.42 cm**-1
  44:      1253.56 cm**-1
  45:      1255.73 cm**-1
  46:      1271.58 cm**-1
  47:      1321.76 cm**-1
  48:      1330.57 cm**-1
  49:      1352.46 cm**-1
  50:      1399.23 cm**-1
  51:      1424.38 cm**-1
  52:      1466.74 cm**-1
  53:      1498.51 cm**-1
  54:      1500.92 cm**-1
  55:      1506.53 cm**-1
  56:      1584.32 cm**-1
  57:      1599.72 cm**-1
  58:      1650.36 cm**-1
  59:      1666.25 cm**-1
  60:      1775.68 cm**-1
  61:      1793.89 cm**-1
  62:      1850.78 cm**-1
  63:      2807.01 cm**-1
  64:      3092.91 cm**-1
  65:      3094.25 cm**-1
  66:      3133.01 cm**-1
  67:      3134.29 cm**-1
  68:      3138.33 cm**-1
  69:      3195.80 cm**-1
  70:      3496.18 cm**-1
  71:      3517.55 cm**-1
  72:      3579.49 cm**-1
  73:      3613.97 cm**-1
  74:      3802.00 cm**-1

IR SPECTRUM
-----------

 Mode   freq       eps      Int      T**2         TX        TY        TZ
       cm**-1   L/(mol*cm) km/mol    a.u.
----------------------------------------------------------------------------
  6:     19.18   0.001031    5.21  0.016774  (-0.000128 -0.000386  0.129513)
  7:     38.62   0.000053    0.27  0.000431  ( 0.000203  0.000349  0.020748)
  8:     57.21   0.001177    5.95  0.006422  (-0.045942 -0.065663 -0.000382)
  9:     63.69   0.000436    2.20  0.002135  ( 0.000183  0.000331  0.046207)
 10:     79.28   0.000093    0.47  0.000366  ( 0.000420  0.000078 -0.019114)
 11:     96.91   0.003829   19.35  0.012332  ( 0.000908 -0.000058 -0.111044)
 12:    134.81   0.004957   25.05  0.011475  ( 0.106855 -0.007456  0.001375)
 13:    168.83   0.000000    0.00  0.000001  ( 0.000692 -0.000291 -0.000527)
 14:    190.96   0.003194   16.14  0.005220  ( 0.000199  0.000193 -0.072247)
 15:    217.30   0.003025   15.29  0.004345  ( 0.060496 -0.026175 -0.000188)
 16:    287.19   0.005401   27.29  0.005868  ( 0.058146 -0.049873  0.000221)
 17:    316.53   0.012128   61.29  0.011957  (-0.102912  0.036965 -0.000102)
 18:    317.29   0.000024    0.12  0.000024  ( 0.001729 -0.000599  0.004544)
 19:    395.42   0.032125  162.35  0.025353  ( 0.132169 -0.088792  0.000335)
 20:    471.67   0.000933    4.72  0.000617  (-0.007581  0.023659  0.000299)
 21:    513.53   0.010776   54.46  0.006549  ( 0.000374 -0.000459 -0.080921)
 22:    542.51   0.000022    0.11  0.000012  (-0.000462 -0.000109 -0.003498)
 23:    568.89   0.008556   43.24  0.004693  ( 0.068355 -0.003798 -0.002500)
 24:    570.33   0.005511   27.85  0.003015  (-0.003280  0.000194 -0.054813)
 25:    634.36   0.010843   54.80  0.005334  ( 0.064539 -0.034173  0.001044)
 26:    638.58   0.001611    8.14  0.000787  (-0.000398  0.000413  0.028049)
 27:    664.61   0.023361  118.05  0.010969  (-0.001018  0.000594  0.104726)
 28:    693.96   0.000792    4.00  0.000356  (-0.018606  0.003184 -0.000002)
 29:    739.88   0.010608   53.61  0.004474  ( 0.000097  0.000261 -0.066888)
 30:    750.97   0.000321    1.62  0.000133  (-0.009176 -0.006978 -0.000619)
 31:    890.66   0.002310   11.68  0.000810  (-0.023673  0.015783 -0.000187)
 32:    931.63   0.002166   10.95  0.000726  (-0.000111  0.000061  0.026938)
 33:    965.37   0.005978   30.21  0.001932  ( 0.033022 -0.029016 -0.000021)
 34:   1008.55   0.024964  126.16  0.007724  ( 0.083710 -0.026768  0.000668)
 35:   1016.71   0.000458    2.32  0.000141  (-0.001618  0.000546  0.011737)
 36:   1028.23   0.000255    1.29  0.000078  ( 0.001657 -0.001195 -0.008565)
 37:   1028.77   0.001180    5.96  0.000358  ( 0.012710 -0.013999  0.000572)
 38:   1111.57   0.014253   72.03  0.004001  (-0.028522  0.056460  0.000045)
 39:   1114.10   0.000218    1.10  0.000061  (-0.000252  0.000378 -0.007809)
 40:   1121.39   0.019021   96.13  0.005293  ( 0.063816 -0.034939  0.000300)
 41:   1167.37   0.008326   42.08  0.002226  (-0.046916 -0.004953 -0.000321)
 42:   1207.63   0.044133  223.03  0.011404  (-0.106582  0.006616 -0.000951)
 43:   1253.42   0.000230    1.16  0.000057  ( 0.005101  0.000800 -0.005523)
 44:   1253.56   0.003637   18.38  0.000905  ( 0.029748  0.004150  0.001760)
 45:   1255.73   0.000439    2.22  0.000109  ( 0.001370  0.000331 -0.010352)
 46:   1271.58   0.003602   18.21  0.000884  ( 0.028134  0.009620  0.000091)
 47:   1321.76   0.000727    3.67  0.000172  (-0.000020 -0.000047 -0.013097)
 48:   1330.57   0.001101    5.56  0.000258  (-0.012541 -0.010042  0.000084)
 49:   1352.46   0.005360   27.09  0.001237  ( 0.034582 -0.006392  0.000133)
 50:   1399.23   0.005981   30.23  0.001334  ( 0.031222 -0.018947  0.000354)
 51:   1424.38   0.112685  569.46  0.024688  (-0.156793 -0.010187 -0.000354)
 52:   1466.74   0.034989  176.82  0.007444  (-0.081001  0.029705 -0.000791)
 53:   1498.51   0.005935   29.99  0.001236  (-0.020715 -0.028403 -0.000052)
 54:   1500.92   0.015321   77.43  0.003185  ( 0.047306 -0.030783  0.000139)
 55:   1506.53   0.001233    6.23  0.000255  ( 0.013205  0.009007  0.000070)
 56:   1584.32   0.121857  615.81  0.024002  (-0.134219  0.077374 -0.000649)
 57:   1599.72   0.012746   64.41  0.002486  (-0.049774 -0.002951 -0.000464)
 58:   1650.36   0.004739   23.95  0.000896  ( 0.019248 -0.022925 -0.000175)
 59:   1666.25   0.005996   30.30  0.001123  ( 0.000084 -0.000156  0.033511)
 60:   1775.68   0.066978  338.48  0.011771  ( 0.006843  0.108278 -0.000260)
 61:   1793.89   0.064159  324.24  0.011161  (-0.105565  0.004142 -0.000310)
 62:   1850.78   0.054782  276.84  0.009237  ( 0.060124  0.074980  0.000112)
 63:   2807.01   0.097524  492.85  0.010842  (-0.058582  0.086082 -0.000138)
 64:   3092.91   0.003145   15.89  0.000317  (-0.015724  0.008372 -0.000061)
 65:   3094.25   0.001000    5.05  0.000101  (-0.010001  0.000892 -0.000065)
 66:   3133.01   0.000115    0.58  0.000011  (-0.000015  0.000039 -0.003384)
 67:   3134.29   0.000854    4.31  0.000085  ( 0.005938 -0.007051  0.000028)
 68:   3138.33   0.000127    0.64  0.000013  (-0.000013  0.000011 -0.003561)
 69:   3195.80   0.000281    1.42  0.000027  (-0.000011  0.000002  0.005236)
 70:   3496.18   0.056971  287.91  0.005085  ( 0.069021  0.017921  0.000244)
 71:   3517.55   0.020573  103.97  0.001825  (-0.036307  0.022516 -0.000013)
 72:   3579.49   0.020371  102.94  0.001776  ( 0.000006 -0.000012  0.042142)
 73:   3613.97   0.026407  133.45  0.002280  ( 0.018009 -0.044225  0.000247)
 74:   3802.00   0.026755  135.21  0.002196  ( 0.036549 -0.029326  0.000466)

--------------------------
THERMOCHEMISTRY AT 298.15K
--------------------------

Temperature         ... 298.15 K
Pressure            ... 1.00 atm
Total Mass          ... 190.18 AMU

Throughout the following assumptions are being made:
  (1) The electronic state is orbitally nondegenerate
  (2) There are no thermally accessible electronically excited states
  (3) Hindered rotations indicated by low frequency modes are not
      treated as such but are treated as vibrations and this may
      cause some error
  (4) All equations used are the standard statistical mechanics
      equations for an ideal gas
  (5) All vibrations are strictly harmonic

freq.      19.18  E(vib)   ...       0.57
freq.      38.62  E(vib)   ...       0.54
freq.      57.21  E(vib)   ...       0.51
freq.      63.69  E(vib)   ...       0.51
freq.      79.28  E(vib)   ...       0.49
freq.      96.91  E(vib)   ...       0.46
freq.     134.81  E(vib)   ...       0.42
freq.     168.83  E(vib)   ...       0.38
freq.     190.96  E(vib)   ...       0.36
freq.     217.30  E(vib)   ...       0.34
freq.     287.19  E(vib)   ...       0.27
freq.     316.53  E(vib)   ...       0.25
freq.     317.29  E(vib)   ...       0.25
freq.     395.42  E(vib)   ...       0.20
freq.     471.67  E(vib)   ...       0.15
freq.     513.53  E(vib)   ...       0.13
freq.     542.51  E(vib)   ...       0.12
freq.     568.89  E(vib)   ...       0.11
freq.     570.33  E(vib)   ...       0.11
freq.     634.36  E(vib)   ...       0.09
freq.     638.58  E(vib)   ...       0.09
freq.     664.61  E(vib)   ...       0.08
freq.     693.96  E(vib)   ...       0.07
freq.     739.88  E(vib)   ...       0.06
freq.     750.97  E(vib)   ...       0.06
freq.     890.66  E(vib)   ...       0.04
freq.     931.63  E(vib)   ...       0.03
freq.     965.37  E(vib)   ...       0.03
freq.    1008.55  E(vib)   ...       0.02
freq.    1016.71  E(vib)   ...       0.02
freq.    1028.23  E(vib)   ...       0.02
freq.    1028.77  E(vib)   ...       0.02
freq.    1111.57  E(vib)   ...       0.01
freq.    1114.10  E(vib)   ...       0.01
freq.    1121.39  E(vib)   ...       0.01
freq.    1167.37  E(vib)   ...       0.01
freq.    1207.63  E(vib)   ...       0.01
freq.    1253.42  E(vib)   ...       0.01
freq.    1253.56  E(vib)   ...       0.01
freq.    1255.73  E(vib)   ...       0.01
freq.    1271.58  E(vib)   ...       0.01
freq.    1321.76  E(vib)   ...       0.01
freq.    1330.57  E(vib)   ...       0.01
freq.    1352.46  E(vib)   ...       0.01
freq.    1399.23  E(vib)   ...       0.00
freq.    1424.38  E(vib)   ...       0.00
freq.    1466.74  E(vib)   ...       0.00
freq.    1498.51  E(vib)   ...       0.00
freq.    1500.92  E(vib)   ...       0.00
freq.    1506.53  E(vib)   ...       0.00
freq.    1584.32  E(vib)   ...       0.00
freq.    1599.72  E(vib)   ...       0.00
freq.    1650.36  E(vib)   ...       0.00
freq.    1666.25  E(vib)   ...       0.00
freq.    1775.68  E(vib)   ...       0.00
freq.    1793.89  E(vib)   ...       0.00
freq.    1850.78  E(vib)   ...       0.00
freq.    2807.01  E(vib)   ...       0.00
freq.    3092.91  E(vib)   ...       0.00
freq.    3094.25  E(vib)   ...       0.00
freq.    3133.01  E(vib)   ...       0.00
freq.    3134.29  E(vib)   ...       0.00
freq.    3138.33  E(vib)   ...       0.00
freq.    3195.80  E(vib)   ...       0.00
freq.    3496.18  E(vib)   ...       0.00
freq.    3517.55  E(vib)   ...       0.00
freq.    3579.49  E(vib)   ...       0.00
freq.    3613.97  E(vib)   ...       0.00
freq.    3802.00  E(vib)   ...       0.00

------------
INNER ENERGY
------------

The inner energy is: U= E(el) + E(ZPE) + E(vib) + E(rot) + E(trans)
    E(el)   - is the total energy from the electronic structure calculation
              = E(kin-el) + E(nuc-el) + E(el-el) + E(nuc-nuc)
    E(ZPE)  - the the zero temperature vibrational energy from the frequency calculation
    E(vib)  - the the finite temperature correction to E(ZPE) due to population
              of excited vibrational states
    E(rot)  - is the rotational thermal energy
    E(trans)- is the translational thermal energy

Summary of contributions to the inner energy U:
Electronic energy                ...   -701.34837268 Eh
Zero point energy                ...      0.20759957 Eh     130.27 kcal/mol
Thermal vibrational correction   ...      0.01108826 Eh       6.96 kcal/mol
Thermal rotational correction    ...      0.00141627 Eh       0.89 kcal/mol
Thermal translational correction ...      0.00141627 Eh       0.89 kcal/mol
-----------------------------------------------------------------------
Total thermal energy                   -701.12685231 Eh

Summary of corrections to the electronic energy:
(perhaps to be used in another calculation)
Total thermal correction                  0.01392080 Eh       8.74 kcal/mol
Non-thermal (ZPE) correction              0.20759957 Eh     130.27 kcal/mol
-----------------------------------------------------------------------
Total correction                          0.22152037 Eh     139.01 kcal/mol

--------
ENTHALPY
--------

The enthalpy is H = U + kB*T
                kB is Boltzmann's constant
Total free energy                 ...   -701.12685231 Eh
Thermal Enthalpy correction       ...      0.00094421 Eh       0.59 kcal/mol
-----------------------------------------------------------------------
Total Enthalpy                    ...   -701.12590810 Eh

Note: Only C1 symmetry has been detected, increase convergence thresholds
      if your molecule has a higher symmetry. Symmetry factor of 1.0 is
      used for the rotational entropy correction.

Note: Rotational entropy computed according to Herzberg
Infrared and Raman Spectra, Chapter V,1, Van Nostrand Reinhold, 1945
Point Group:  C1, Symmetry Number:   1
Rotational constants in cm-1:     0.109702     0.007509     0.007064

Vibrational entropy computed according to the QRRHO of S. Grimme
Chem.Eur.J. 2012 18 9955

-------
ENTROPY
-------

The entropy contributions are T*S = T*(S(el)+S(vib)+S(rot)+S(trans))
     S(el)   - electronic entropy
     S(vib)  - vibrational entropy
     S(rot)  - rotational entropy
     S(trans)- translational entropy
The entropies will be listed as multiplied by the temperature to get
units of energy

Electronic entropy                ...      0.00000000 Eh      0.00 kcal/mol
Vibrational entropy               ...      0.02023126 Eh     12.70 kcal/mol
Rotational entropy                ...      0.01520152 Eh      9.54 kcal/mol
Translational entropy             ...      0.01978162 Eh     12.41 kcal/mol
-----------------------------------------------------------------------

                             ****ORCA TERMINATED NORMALLY****
TOTAL RUN TIME: 0 days 1 hours 26 minutes 3 seconds 186 msec
