                         Program Version 5.0.2 -  RELEASE  -
|  1> # GGG-H_tt_028 (old 171)
|  2> ! wB97X-D3BJ Opt Freq def2-TZVPP def2/J RIJCOSX VeryTightSCF
|  3> ! PAL8 defgrid3 VeryTightOpt
|  4>
|  5> %maxcore 4096
|  6>
|  7> %geom
|  8>   MaxIter 300
|  9>   # MaxStep 0.1
| 10>   Calc_Hess true
| 11>   Recalc_Hess 10
| 12> end
| 13>
| 14> %chelpg
| 15>   grid 0.1
| 16>   rmax 3.0
| 17> end
| 18>
| 19> * xyz 1 1
| 20>  N   -1.537226   +1.408850   -2.951958
| 21>  H   -2.343358   +1.823106   -2.485214
| 22>  C   -1.705771   +0.966275   -4.323163
| 23>  C   -2.167362   -0.512647   -4.341460
| 24>  H   -2.437564   +1.617103   -4.829817
| 25>  H   -0.742383   +1.046124   -4.855740
| 26>  O   -2.290110   -1.168267   -3.334439
| 27>  C   -0.571797   +0.860986   -2.186652
| 28>  C   -0.656610   +1.111669   -0.665037
| 29>  O   +0.355425   +0.196665   -2.691429
| 30>  N   +0.000000   +0.000000   +0.000000
| 31>  H   -1.698960   +1.212460   -0.325358
| 32>  H   -0.106934   +2.034642   -0.414736
| 33>  H   -0.468854   -0.902181   -0.090307
| 34>  C   +1.369894   +0.000000   +0.000000
| 35>  C   +2.033035   -1.355958   -0.292146
| 36>  O   +2.067772   +1.005062   +0.000000
| 37>  H   +1.357808   -2.223935   -0.261223
| 38>  H   +2.919406   -1.530636   +0.334132
| 39>  O   -2.395659   -1.038300   -5.559672
| 40>  H   -2.274076   -0.377346   -6.269676
| 41>  N   +2.464924   -1.145616   -1.728371
| 42>  H   +2.799197   -2.001129   -2.195101
| 43>  H   +1.624896   -0.700543   -2.245693
| 44>  H   +3.213801   -0.432586   -1.745953
| 45> *
| 46>
| 47>                          ****END OF INPUT****
 Total Charge           Charge          ....    1
 Multiplicity           Mult            ....    1
 Number of Electrons    NEL             ....  100
Dispersion correction           -0.043789433
FINAL SINGLE POINT ENERGY      -701.335028501064
Dispersion correction            ... done
Dispersion correction in the Hessian             ... done   (      0.8 sec)
Dispersion correction           -0.044003767
FINAL SINGLE POINT ENERGY      -701.338365528499
Dispersion correction            ... done
Dispersion correction           -0.043992076
FINAL SINGLE POINT ENERGY      -701.338466165307
FINAL SINGLE POINT ENERGY      -701.338538289372
FINAL SINGLE POINT ENERGY      -701.338589644349
FINAL SINGLE POINT ENERGY      -701.338652746015
FINAL SINGLE POINT ENERGY      -701.338689752934
FINAL SINGLE POINT ENERGY      -701.338718978486
FINAL SINGLE POINT ENERGY      -701.338739855891
FINAL SINGLE POINT ENERGY      -701.338748420990
FINAL SINGLE POINT ENERGY      -701.338750694992
Dispersion correction            ... done
Dispersion correction in the Hessian             ... done   (      0.8 sec)
Dispersion correction           -0.043864180
FINAL SINGLE POINT ENERGY      -701.338751531172
Dispersion correction            ... done
                    ***********************HURRAY********************

CARTESIAN COORDINATES (ANGSTROEM)
---------------------------------
  N     -1.483338    1.383552   -2.947577
  H     -2.236214    1.876921   -2.497102
  C     -1.666984    0.996502   -4.326285
  C     -2.321582   -0.388422   -4.412024
  H     -2.293789    1.736623   -4.825871
  H     -0.701273    0.970437   -4.833597
  O     -2.644508   -1.015226   -3.447087
  C     -0.618109    0.717435   -2.171310
  C     -0.730308    0.985895   -0.662395
  O      0.223226   -0.051595   -2.637954
  N      0.050348    0.002203    0.053230
  H     -1.771693    0.932170   -0.346522
  H     -0.350389    1.984170   -0.444882
  H     -0.351844   -0.920451    0.091172
  C      1.398681    0.077796   -0.088541
  C      2.140802   -1.252123   -0.234505
  O      2.018585    1.100391   -0.279048
  H      1.533186   -2.137609   -0.059374
  H      3.044453   -1.276855    0.369856
  O     -2.505537   -0.862481   -5.652137
  H     -2.208820   -0.242715   -6.326656
  N      2.518564   -1.217012   -1.690886
  H      2.901933   -2.097708   -2.028100
  H      1.662261   -0.937856   -2.229388
  H      3.201842   -0.470244   -1.832030

 Multiplicity           Mult            ....    1
 Number of Electrons    NEL             ....  100
 Basis Dimension        Dim             ....  571

ORBITAL ENERGIES
----------------

  NO   OCC          E(Eh)            E(eV)
   0   2.0000     -19.379925      -527.3546
   1   2.0000     -19.347448      -526.4708
   2   2.0000     -19.343630      -526.3669
   3   2.0000     -19.318075      -525.6715
   4   2.0000     -14.696967      -399.9248
   5   2.0000     -14.593886      -397.1198
   6   2.0000     -14.590843      -397.0370
   7   2.0000     -10.541409      -286.8463
   8   2.0000     -10.536534      -286.7137
   9   2.0000     -10.526706      -286.4462
  10   2.0000     -10.508234      -285.9436
  11   2.0000     -10.466939      -284.8199
  12   2.0000     -10.461315      -284.6669
  13   2.0000      -1.361423       -37.0462
  14   2.0000      -1.352699       -36.8088
  15   2.0000      -1.334160       -36.3043
  16   2.0000      -1.297834       -35.3159
  17   2.0000      -1.276414       -34.7330
  18   2.0000      -1.223080       -33.2817
  19   2.0000      -1.216901       -33.1136
  20   2.0000      -1.059361       -28.8267
  21   2.0000      -1.029620       -28.0174
  22   2.0000      -0.979602       -26.6563
  23   2.0000      -0.891872       -24.2691
  24   2.0000      -0.880112       -23.9491
  25   2.0000      -0.872190       -23.7335
  26   2.0000      -0.860908       -23.4265
  27   2.0000      -0.851322       -23.1656
  28   2.0000      -0.814815       -22.1722
  29   2.0000      -0.793563       -21.5940
  30   2.0000      -0.781783       -21.2734
  31   2.0000      -0.764426       -20.8011
  32   2.0000      -0.749499       -20.3949
  33   2.0000      -0.733610       -19.9625
  34   2.0000      -0.716305       -19.4916
  35   2.0000      -0.708089       -19.2681
  36   2.0000      -0.697618       -18.9832
  37   2.0000      -0.693911       -18.8823
  38   2.0000      -0.682384       -18.5686
  39   2.0000      -0.670252       -18.2385
  40   2.0000      -0.644081       -17.5263
  41   2.0000      -0.639184       -17.3931
  42   2.0000      -0.630323       -17.1520
  43   2.0000      -0.617438       -16.8013
  44   2.0000      -0.551335       -15.0026
  45   2.0000      -0.547732       -14.9045
  46   2.0000      -0.536588       -14.6013
  47   2.0000      -0.531664       -14.4673
  48   2.0000      -0.517246       -14.0750
  49   2.0000      -0.502906       -13.6848
  50   0.0000      -0.081613        -2.2208
  51   0.0000      -0.059261        -1.6126
  52   0.0000      -0.048849        -1.3293
  53   0.0000      -0.024912        -0.6779
  54   0.0000      -0.021506        -0.5852

MULLIKEN ATOMIC CHARGES
-----------------------
   0 N :   -0.188183
   1 H :    0.189026
   2 C :   -0.133636
   3 C :    0.303156
   4 H :    0.156559
   5 H :    0.132384
   6 O :   -0.287841
   7 C :    0.355055
   8 C :   -0.079522
   9 O :   -0.478236
  10 N :   -0.180516
  11 H :    0.145314
  12 H :    0.157594
  13 H :    0.181482
  14 C :    0.197773
  15 C :   -0.143003
  16 O :   -0.316443
  17 H :    0.146820
  18 H :    0.172676
  19 O :   -0.212264
  20 H :    0.216905
  21 N :   -0.056044
  22 H :    0.232838
  23 H :    0.246353
  24 H :    0.241755
Sum of atomic charges:    1.0000000

LOEWDIN ATOMIC CHARGES
----------------------
   0 N :    0.347490
   1 H :   -0.005194
   2 C :   -0.049356
   3 C :   -0.443017
   4 H :    0.035621
   5 H :    0.034998
   6 O :    0.138639
   7 C :   -0.343673
   8 C :   -0.025534
   9 O :    0.095072
  10 N :    0.328284
  11 H :    0.036612
  12 H :    0.045040
  13 H :   -0.015292
  14 C :   -0.404811
  15 C :    0.040489
  16 O :    0.124311
  17 H :    0.028984
  18 H :    0.038779
  19 O :    0.392118
  20 H :   -0.095578
  21 N :    0.604910
  22 H :    0.043473
  23 H :   -0.009162
  24 H :    0.056798

  Mayer bond orders larger than 0.100000
B(  0-N ,  1-H ) :   0.9657 B(  0-N ,  2-C ) :   0.9316 B(  0-N ,  7-C ) :   1.3209
B(  2-C ,  3-C ) :   0.9316 B(  2-C ,  4-H ) :   0.9695 B(  2-C ,  5-H ) :   0.9740
B(  3-C ,  6-O ) :   2.1132 B(  3-C , 19-O ) :   1.2350 B(  7-C ,  8-C ) :   0.9411
B(  7-C ,  9-O ) :   1.7216 B(  8-C , 10-N ) :   0.9325 B(  8-C , 11-H ) :   0.9852
B(  8-C , 12-H ) :   0.9676 B(  9-O , 23-H ) :   0.1506 B( 10-N , 13-H ) :   0.9689
B( 10-N , 14-C ) :   1.2304 B( 14-C , 15-C ) :   0.9506 B( 14-C , 16-O ) :   2.0364
B( 15-C , 17-H ) :   0.9953 B( 15-C , 18-H ) :   0.9868 B( 15-C , 21-N ) :   0.8815
B( 19-O , 20-H ) :   0.9790 B( 21-N , 22-H ) :   0.9384 B( 21-N , 23-H ) :   0.8606
B( 21-N , 24-H ) :   0.9245

Dispersion correction           -0.043863679
FINAL SINGLE POINT ENERGY      -701.338751533869

DIPOLE MOMENT
-------------
                                X             Y             Z
Electronic contribution:     -3.01788       0.10185      -1.49765
Nuclear contribution   :      5.24983      -0.68781       1.67647
                        -----------------------------------------
Total Dipole Moment    :      2.23194      -0.58596       0.17882
                        -----------------------------------------
Magnitude (a.u.)       :      2.31450
Magnitude (Debye)      :      5.88299

Dispersion correction in the Hessian             ... done   (      0.7 sec)

VIBRATIONAL FREQUENCIES
-----------------------

Scaling factor for frequencies =  1.000000000  (already applied!)

   0:         0.00 cm**-1
   1:         0.00 cm**-1
   2:         0.00 cm**-1
   3:         0.00 cm**-1
   4:         0.00 cm**-1
   5:         0.00 cm**-1
   6:        26.81 cm**-1
   7:        43.81 cm**-1
   8:        56.98 cm**-1
   9:        80.04 cm**-1
  10:        82.20 cm**-1
  11:       135.76 cm**-1
  12:       157.61 cm**-1
  13:       249.29 cm**-1
  14:       263.50 cm**-1
  15:       276.97 cm**-1
  16:       311.02 cm**-1
  17:       331.45 cm**-1
  18:       345.61 cm**-1
  19:       406.83 cm**-1
  20:       442.15 cm**-1
  21:       452.61 cm**-1
  22:       519.86 cm**-1
  23:       551.08 cm**-1
  24:       570.90 cm**-1
  25:       582.27 cm**-1
  26:       610.87 cm**-1
  27:       679.17 cm**-1
  28:       712.98 cm**-1
  29:       728.75 cm**-1
  30:       784.18 cm**-1
  31:       877.15 cm**-1
  32:       880.33 cm**-1
  33:       906.64 cm**-1
  34:       912.75 cm**-1
  35:       981.24 cm**-1
  36:      1054.94 cm**-1
  37:      1057.01 cm**-1
  38:      1075.58 cm**-1
  39:      1120.52 cm**-1
  40:      1139.89 cm**-1
  41:      1158.88 cm**-1
  42:      1191.00 cm**-1
  43:      1279.61 cm**-1
  44:      1280.80 cm**-1
  45:      1301.67 cm**-1
  46:      1306.83 cm**-1
  47:      1321.92 cm**-1
  48:      1335.59 cm**-1
  49:      1403.08 cm**-1
  50:      1415.56 cm**-1
  51:      1421.74 cm**-1
  52:      1471.86 cm**-1
  53:      1475.04 cm**-1
  54:      1505.07 cm**-1
  55:      1542.21 cm**-1
  56:      1573.61 cm**-1
  57:      1601.39 cm**-1
  58:      1626.30 cm**-1
  59:      1683.87 cm**-1
  60:      1736.49 cm**-1
  61:      1821.43 cm**-1
  62:      1890.39 cm**-1
  63:      3028.38 cm**-1
  64:      3103.74 cm**-1
  65:      3118.27 cm**-1
  66:      3132.94 cm**-1
  67:      3156.51 cm**-1
  68:      3173.24 cm**-1
  69:      3203.94 cm**-1
  70:      3476.48 cm**-1
  71:      3556.32 cm**-1
  72:      3653.34 cm**-1
  73:      3665.86 cm**-1
  74:      3850.58 cm**-1

IR SPECTRUM
-----------

 Mode   freq       eps      Int      T**2         TX        TY        TZ
       cm**-1   L/(mol*cm) km/mol    a.u.
----------------------------------------------------------------------------
  6:     26.81   0.002821   14.26  0.032835  ( 0.159374 -0.013498  0.085162)
  7:     43.81   0.000868    4.39  0.006181  (-0.011133  0.007665  0.077447)
  8:     56.98   0.002134   10.79  0.011688  ( 0.095648 -0.024276 -0.044156)
  9:     80.04   0.002282   11.53  0.008897  ( 0.069327  0.049568  0.040416)
 10:     82.20   0.000759    3.84  0.002883  (-0.050694 -0.008745  0.015398)
 11:    135.76   0.007959   40.22  0.018296  (-0.036301  0.091600 -0.092667)
 12:    157.61   0.002970   15.01  0.005880  (-0.044464 -0.029592 -0.055019)
 13:    249.29   0.007676   38.79  0.009609  ( 0.077018 -0.057555 -0.019106)
 14:    263.50   0.003391   17.13  0.004016  ( 0.058891  0.022848  0.005033)
 15:    276.97   0.004839   24.45  0.005452  (-0.035984  0.027381  0.058369)
 16:    311.02   0.003808   19.24  0.003820  ( 0.001752  0.036637  0.049751)
 17:    331.45   0.002897   14.64  0.002727  (-0.024958  0.007047 -0.045327)
 18:    345.61   0.000725    3.66  0.000655  (-0.012312  0.022427 -0.000158)
 19:    406.83   0.008470   42.81  0.006497  (-0.066240  0.033127 -0.031815)
 20:    442.15   0.004748   23.99  0.003351  ( 0.044164 -0.019394  0.032008)
 21:    452.61   0.020175  101.96  0.013910  ( 0.106448 -0.049893  0.009468)
 22:    519.86   0.005612   28.36  0.003369  (-0.005715 -0.057528  0.005160)
 23:    551.08   0.005337   26.97  0.003022  (-0.006904 -0.054539 -0.000244)
 24:    570.90   0.001558    7.87  0.000852  (-0.025306  0.014259 -0.002827)
 25:    582.27   0.006986   35.30  0.003744  ( 0.014942  0.045385 -0.038223)
 26:    610.87   0.006149   31.07  0.003141  (-0.021088  0.035777  0.037636)
 27:    679.17   0.021116  106.71  0.009702  (-0.038674 -0.035601  0.083302)
 28:    712.98   0.001501    7.58  0.000657  ( 0.009839 -0.016119 -0.017327)
 29:    728.75   0.001763    8.91  0.000755  (-0.023864 -0.005041  0.012652)
 30:    784.18   0.002018   10.20  0.000803  ( 0.004699 -0.001420  0.027908)
 31:    877.15   0.001961    9.91  0.000698  ( 0.010856 -0.023441 -0.005505)
 32:    880.33   0.001651    8.34  0.000585  ( 0.013547 -0.013010 -0.015248)
 33:    906.64   0.000929    4.69  0.000320  ( 0.016630 -0.004196  0.005056)
 34:    912.75   0.003008   15.20  0.001028  (-0.016353 -0.003995 -0.027296)
 35:    981.24   0.001159    5.86  0.000369  ( 0.017358 -0.002938 -0.007652)
 36:   1054.94   0.000531    2.68  0.000157  ( 0.008821  0.006953 -0.005554)
 37:   1057.01   0.004706   23.78  0.001389  ( 0.032618 -0.015265  0.009608)
 38:   1075.58   0.002580   13.04  0.000748  (-0.025328 -0.010180 -0.001822)
 39:   1120.52   0.000452    2.28  0.000126  ( 0.009374 -0.001282 -0.006025)
 40:   1139.89   0.011823   59.75  0.003237  (-0.036335  0.040592 -0.016394)
 41:   1158.88   0.002874   14.53  0.000774  ( 0.022770 -0.001831  0.015880)
 42:   1191.00   0.000502    2.54  0.000131  (-0.008325 -0.007842  0.000812)
 43:   1279.61   0.002424   12.25  0.000591  ( 0.015753 -0.007443  0.016958)
 44:   1280.80   0.023812  120.34  0.005802  ( 0.036178  0.011959  0.065953)
 45:   1301.67   0.013267   67.05  0.003181  (-0.048031  0.019530 -0.022186)
 46:   1306.83   0.067793  342.60  0.016189  ( 0.026586  0.044035  0.116373)
 47:   1321.92   0.001788    9.04  0.000422  (-0.002934  0.017152  0.010920)
 48:   1335.59   0.003509   17.73  0.000820  ( 0.023145  0.001058  0.016826)
 49:   1403.08   0.002297   11.61  0.000511  (-0.019364  0.008766  0.007683)
 50:   1415.56   0.021991  111.13  0.004848  ( 0.017661  0.044174  0.050840)
 51:   1421.74   0.000399    2.01  0.000087  ( 0.009000 -0.001941 -0.001643)
 52:   1471.86   0.004464   22.56  0.000947  ( 0.011752 -0.018030 -0.021986)
 53:   1475.04   0.003404   17.20  0.000720  ( 0.023899  0.009471 -0.007702)
 54:   1505.07   0.002715   13.72  0.000563  ( 0.003950 -0.018759  0.013982)
 55:   1542.21   0.027918  141.09  0.005649  ( 0.054329 -0.024715 -0.045679)
 56:   1573.61   0.038949  196.83  0.007724  ( 0.087069 -0.011543  0.003108)
 57:   1601.39   0.042868  216.64  0.008354  ( 0.047958 -0.019926  0.075211)
 58:   1626.30   0.014777   74.68  0.002836  ( 0.016709 -0.049544  0.010085)
 59:   1683.87   0.023979  121.18  0.004444  ( 0.054099 -0.038084  0.008174)
 60:   1736.49   0.052835  267.00  0.009495  ( 0.077579 -0.058204  0.009415)
 61:   1821.43   0.051738  261.46  0.008864  (-0.077587 -0.052724 -0.008032)
 62:   1890.39   0.048171  243.44  0.007952  ( 0.017478  0.044266 -0.075413)
 63:   3028.38   0.170412  861.19  0.017560  (-0.108395  0.051204 -0.056471)
 64:   3103.74   0.001742    8.80  0.000175  (-0.004057 -0.001472 -0.012509)
 65:   3118.27   0.002664   13.46  0.000267  (-0.012983  0.001718 -0.009753)
 66:   3132.94   0.000809    4.09  0.000081  ( 0.008886  0.000254  0.001253)
 67:   3156.51   0.000017    0.09  0.000002  ( 0.000768  0.000410 -0.000972)
 68:   3173.24   0.000277    1.40  0.000027  ( 0.001740  0.004676  0.001539)
 69:   3203.94   0.000134    0.68  0.000013  (-0.001572  0.002006 -0.002565)
 70:   3476.48   0.017508   88.48  0.001572  ( 0.038524  0.004641 -0.008121)
 71:   3556.32   0.020524  103.72  0.001801  ( 0.007319 -0.041167 -0.007259)
 72:   3653.34   0.008858   44.76  0.000757  ( 0.017060  0.021074 -0.004634)
 73:   3665.86   0.013281   67.12  0.001131  (-0.026824  0.019356  0.006032)
 74:   3850.58   0.018067   91.30  0.001464  (-0.003735 -0.011592  0.036275)

--------------------------
THERMOCHEMISTRY AT 298.15K
--------------------------

Temperature         ... 298.15 K
Pressure            ... 1.00 atm
Total Mass          ... 190.18 AMU

Throughout the following assumptions are being made:
  (1) The electronic state is orbitally nondegenerate
  (2) There are no thermally accessible electronically excited states
  (3) Hindered rotations indicated by low frequency modes are not
      treated as such but are treated as vibrations and this may
      cause some error
  (4) All equations used are the standard statistical mechanics
      equations for an ideal gas
  (5) All vibrations are strictly harmonic

freq.      26.81  E(vib)   ...       0.55
freq.      43.81  E(vib)   ...       0.53
freq.      56.98  E(vib)   ...       0.51
freq.      80.04  E(vib)   ...       0.49
freq.      82.20  E(vib)   ...       0.48
freq.     135.76  E(vib)   ...       0.42
freq.     157.61  E(vib)   ...       0.40
freq.     249.29  E(vib)   ...       0.31
freq.     263.50  E(vib)   ...       0.29
freq.     276.97  E(vib)   ...       0.28
freq.     311.02  E(vib)   ...       0.26
freq.     331.45  E(vib)   ...       0.24
freq.     345.61  E(vib)   ...       0.23
freq.     406.83  E(vib)   ...       0.19
freq.     442.15  E(vib)   ...       0.17
freq.     452.61  E(vib)   ...       0.16
freq.     519.86  E(vib)   ...       0.13
freq.     551.08  E(vib)   ...       0.12
freq.     570.90  E(vib)   ...       0.11
freq.     582.27  E(vib)   ...       0.11
freq.     610.87  E(vib)   ...       0.10
freq.     679.17  E(vib)   ...       0.08
freq.     712.98  E(vib)   ...       0.07
freq.     728.75  E(vib)   ...       0.06
freq.     784.18  E(vib)   ...       0.05
freq.     877.15  E(vib)   ...       0.04
freq.     880.33  E(vib)   ...       0.04
freq.     906.64  E(vib)   ...       0.03
freq.     912.75  E(vib)   ...       0.03
freq.     981.24  E(vib)   ...       0.02
freq.    1054.94  E(vib)   ...       0.02
freq.    1057.01  E(vib)   ...       0.02
freq.    1075.58  E(vib)   ...       0.02
freq.    1120.52  E(vib)   ...       0.01
freq.    1139.89  E(vib)   ...       0.01
freq.    1158.88  E(vib)   ...       0.01
freq.    1191.00  E(vib)   ...       0.01
freq.    1279.61  E(vib)   ...       0.01
freq.    1280.80  E(vib)   ...       0.01
freq.    1301.67  E(vib)   ...       0.01
freq.    1306.83  E(vib)   ...       0.01
freq.    1321.92  E(vib)   ...       0.01
freq.    1335.59  E(vib)   ...       0.01
freq.    1403.08  E(vib)   ...       0.00
freq.    1415.56  E(vib)   ...       0.00
freq.    1421.74  E(vib)   ...       0.00
freq.    1471.86  E(vib)   ...       0.00
freq.    1475.04  E(vib)   ...       0.00
freq.    1505.07  E(vib)   ...       0.00
freq.    1542.21  E(vib)   ...       0.00
freq.    1573.61  E(vib)   ...       0.00
freq.    1601.39  E(vib)   ...       0.00
freq.    1626.30  E(vib)   ...       0.00
freq.    1683.87  E(vib)   ...       0.00
freq.    1736.49  E(vib)   ...       0.00
freq.    1821.43  E(vib)   ...       0.00
freq.    1890.39  E(vib)   ...       0.00
freq.    3028.38  E(vib)   ...       0.00
freq.    3103.74  E(vib)   ...       0.00
freq.    3118.27  E(vib)   ...       0.00
freq.    3132.94  E(vib)   ...       0.00
freq.    3156.51  E(vib)   ...       0.00
freq.    3173.24  E(vib)   ...       0.00
freq.    3203.94  E(vib)   ...       0.00
freq.    3476.48  E(vib)   ...       0.00
freq.    3556.32  E(vib)   ...       0.00
freq.    3653.34  E(vib)   ...       0.00
freq.    3665.86  E(vib)   ...       0.00
freq.    3850.58  E(vib)   ...       0.00

------------
INNER ENERGY
------------

The inner energy is: U= E(el) + E(ZPE) + E(vib) + E(rot) + E(trans)
    E(el)   - is the total energy from the electronic structure calculation
              = E(kin-el) + E(nuc-el) + E(el-el) + E(nuc-nuc)
    E(ZPE)  - the the zero temperature vibrational energy from the frequency calculation
    E(vib)  - the the finite temperature correction to E(ZPE) due to population
              of excited vibrational states
    E(rot)  - is the rotational thermal energy
    E(trans)- is the translational thermal energy

Summary of contributions to the inner energy U:
Electronic energy                ...   -701.33875153 Eh
Zero point energy                ...      0.20930136 Eh     131.34 kcal/mol
Thermal vibrational correction   ...      0.01065478 Eh       6.69 kcal/mol
Thermal rotational correction    ...      0.00141627 Eh       0.89 kcal/mol
Thermal translational correction ...      0.00141627 Eh       0.89 kcal/mol
-----------------------------------------------------------------------
Total thermal energy                   -701.11596285 Eh

Summary of corrections to the electronic energy:
(perhaps to be used in another calculation)
Total thermal correction                  0.01348732 Eh       8.46 kcal/mol
Non-thermal (ZPE) correction              0.20930136 Eh     131.34 kcal/mol
-----------------------------------------------------------------------
Total correction                          0.22278868 Eh     139.80 kcal/mol

--------
ENTHALPY
--------

The enthalpy is H = U + kB*T
                kB is Boltzmann's constant
Total free energy                 ...   -701.11596285 Eh
Thermal Enthalpy correction       ...      0.00094421 Eh       0.59 kcal/mol
-----------------------------------------------------------------------
Total Enthalpy                    ...   -701.11501864 Eh

Note: Only C1 symmetry has been detected, increase convergence thresholds
      if your molecule has a higher symmetry. Symmetry factor of 1.0 is
      used for the rotational entropy correction.

Note: Rotational entropy computed according to Herzberg
Infrared and Raman Spectra, Chapter V,1, Van Nostrand Reinhold, 1945
Point Group:  C1, Symmetry Number:   1
Rotational constants in cm-1:     0.052110     0.013690     0.012502

Vibrational entropy computed according to the QRRHO of S. Grimme
Chem.Eur.J. 2012 18 9955

-------
ENTROPY
-------

The entropy contributions are T*S = T*(S(el)+S(vib)+S(rot)+S(trans))
     S(el)   - electronic entropy
     S(vib)  - vibrational entropy
     S(rot)  - rotational entropy
     S(trans)- translational entropy
The entropies will be listed as multiplied by the temperature to get
units of energy

Electronic entropy                ...      0.00000000 Eh      0.00 kcal/mol
Vibrational entropy               ...      0.01888976 Eh     11.85 kcal/mol
Rotational entropy                ...      0.01499999 Eh      9.41 kcal/mol
Translational entropy             ...      0.01978162 Eh     12.41 kcal/mol
-----------------------------------------------------------------------

                             ****ORCA TERMINATED NORMALLY****
TOTAL RUN TIME: 0 days 2 hours 25 minutes 46 seconds 780 msec
