                         Program Version 5.0.2 -  RELEASE  -
|  1> # GGG-H_tt_024 (old 126)
|  2> ! wB97X-D3BJ Opt Freq def2-TZVPP def2/J RIJCOSX VeryTightSCF
|  3> ! PAL8 defgrid3 VeryTightOpt
|  4>
|  5> %maxcore 4096
|  6>
|  7> %geom
|  8>   MaxIter 300
|  9>   # MaxStep 0.1
| 10>   Calc_Hess true
| 11>   Recalc_Hess 10
| 12> end
| 13>
| 14> %chelpg
| 15>   grid 0.1
| 16>   rmax 3.0
| 17> end
| 18>
| 19> * xyz 1 1
| 20>  N   -1.036189   +1.940859   -2.928432
| 21>  H   -1.754664   +2.516262   -2.488524
| 22>  C   -0.964130   +1.943591   -4.382935
| 23>  C   -2.132473   +1.241240   -5.081908
| 24>  H   -0.920763   +2.980963   -4.755604
| 25>  H   -0.035717   +1.435793   -4.682933
| 26>  O   -2.178754   +1.068613   -6.275083
| 27>  C   -0.372067   +1.054693   -2.168114
| 28>  C   -0.638974   +1.132751   -0.641963
| 29>  O   +0.430772   +0.229409   -2.652620
| 30>  N   +0.000000   +0.000000   +0.000000
| 31>  H   -1.719991   +1.136322   -0.428788
| 32>  H   -0.198571   +2.062694   -0.246222
| 33>  H   -0.468126   -0.899205   -0.109971
| 34>  C   +1.368452   +0.000000   +0.000000
| 35>  C   +2.048903   -1.347581   -0.290108
| 36>  O   +2.060582   +1.010223   +0.000000
| 37>  H   +1.376721   -2.217959   -0.315506
| 38>  H   +2.902634   -1.536335   +0.376577
| 39>  O   -3.096350   +0.864287   -4.205620
| 40>  H   -3.811734   +0.447860   -4.734591
| 41>  N   +2.554706   -1.099624   -1.694785
| 42>  H   +1.731070   -0.668924   -2.242514
| 43>  H   +3.279948   -0.362625   -1.653936
| 44>  H   +2.940342   -1.934810   -2.158838
| 45> *
| 46>
| 47>                          ****END OF INPUT****
 Total Charge           Charge          ....    1
 Multiplicity           Mult            ....    1
 Number of Electrons    NEL             ....  100
Dispersion correction           -0.042739533
FINAL SINGLE POINT ENERGY      -701.339742612291
Dispersion correction            ... done
Dispersion correction in the Hessian             ... done   (      0.6 sec)
Dispersion correction           -0.042968588
FINAL SINGLE POINT ENERGY      -701.343144733343
Dispersion correction            ... done
Dispersion correction           -0.042991926
FINAL SINGLE POINT ENERGY      -701.343294253487
FINAL SINGLE POINT ENERGY      -701.343474657639
FINAL SINGLE POINT ENERGY      -701.343625466002
FINAL SINGLE POINT ENERGY      -701.343757991835
FINAL SINGLE POINT ENERGY      -701.343840127610
FINAL SINGLE POINT ENERGY      -701.343908575767
FINAL SINGLE POINT ENERGY      -701.343965873341
FINAL SINGLE POINT ENERGY      -701.344022865646
FINAL SINGLE POINT ENERGY      -701.344049209610
Dispersion correction           -0.043571505
FINAL SINGLE POINT ENERGY      -701.344071857939
Dispersion correction            ... done
Dispersion correction           -0.043571058
FINAL SINGLE POINT ENERGY      -701.344071696960
Dispersion correction            ... done
                    ***********************HURRAY********************

CARTESIAN COORDINATES (ANGSTROEM)
---------------------------------
  N     -1.050483    2.144559   -2.814709
  H     -1.638637    2.811324   -2.344186
  C     -0.997645    2.146164   -4.263856
  C     -1.758187    1.002886   -4.920943
  H     -1.423905    3.081309   -4.627943
  H      0.033071    2.088175   -4.608226
  O     -1.512077    0.604060   -6.021549
  C     -0.468788    1.174534   -2.109570
  C     -0.652955    1.237695   -0.583380
  O      0.180316    0.274884   -2.650843
  N      0.000388    0.098290    0.022151
  H     -1.714013    1.228551   -0.334005
  H     -0.216729    2.161206   -0.203631
  H     -0.506777   -0.769866   -0.027703
  C      1.346461    0.029100   -0.144408
  C      1.936480   -1.353685   -0.428196
  O      2.075399    0.990073   -0.255308
  H      1.229024   -2.177225   -0.356706
  H      2.816798   -1.546900    0.180522
  O     -2.753192    0.528730   -4.148390
  H     -3.212618   -0.150020   -4.661306
  N      2.351260   -1.207963   -1.866913
  H      1.538994   -0.797204   -2.385469
  H      3.103828   -0.518102   -1.919826
  H      2.659615   -2.082078   -2.288024

 Multiplicity           Mult            ....    1
 Number of Electrons    NEL             ....  100
 Basis Dimension        Dim             ....  571

ORBITAL ENERGIES
----------------

  NO   OCC          E(Eh)            E(eV)
   0   2.0000     -19.377125      -527.2784
   1   2.0000     -19.347735      -526.4786
   2   2.0000     -19.347662      -526.4767
   3   2.0000     -19.314461      -525.5732
   4   2.0000     -14.699550      -399.9951
   5   2.0000     -14.597440      -397.2165
   6   2.0000     -14.592534      -397.0830
   7   2.0000     -10.545087      -286.9464
   8   2.0000     -10.537006      -286.7265
   9   2.0000     -10.521903      -286.3155
  10   2.0000     -10.511606      -286.0353
  11   2.0000     -10.470865      -284.9267
  12   2.0000     -10.451580      -284.4020
  13   2.0000      -1.361148       -37.0387
  14   2.0000      -1.356162       -36.9030
  15   2.0000      -1.334623       -36.3169
  16   2.0000      -1.300516       -35.3888
  17   2.0000      -1.266875       -34.4734
  18   2.0000      -1.226325       -33.3700
  19   2.0000      -1.216733       -33.1090
  20   2.0000      -1.061859       -28.8947
  21   2.0000      -1.030787       -28.0491
  22   2.0000      -0.982450       -26.7338
  23   2.0000      -0.893997       -24.3269
  24   2.0000      -0.885687       -24.1008
  25   2.0000      -0.875009       -23.8102
  26   2.0000      -0.862465       -23.4689
  27   2.0000      -0.848577       -23.0909
  28   2.0000      -0.813412       -22.1341
  29   2.0000      -0.796258       -21.6673
  30   2.0000      -0.769756       -20.9461
  31   2.0000      -0.757524       -20.6133
  32   2.0000      -0.740073       -20.1384
  33   2.0000      -0.733851       -19.9691
  34   2.0000      -0.713649       -19.4194
  35   2.0000      -0.710971       -19.3465
  36   2.0000      -0.701298       -19.0833
  37   2.0000      -0.695217       -18.9178
  38   2.0000      -0.687490       -18.7076
  39   2.0000      -0.673939       -18.3388
  40   2.0000      -0.648256       -17.6399
  41   2.0000      -0.640667       -17.4334
  42   2.0000      -0.625561       -17.0224
  43   2.0000      -0.621496       -16.9118
  44   2.0000      -0.550390       -14.9769
  45   2.0000      -0.547015       -14.8850
  46   2.0000      -0.541229       -14.7276
  47   2.0000      -0.536535       -14.5998
  48   2.0000      -0.521297       -14.1852
  49   2.0000      -0.493371       -13.4253
  50   0.0000      -0.084131        -2.2893
  51   0.0000      -0.061323        -1.6687
  52   0.0000      -0.050843        -1.3835
  53   0.0000      -0.029526        -0.8034
  54   0.0000      -0.024820        -0.6754

MULLIKEN ATOMIC CHARGES
-----------------------
   0 N :   -0.185090
   1 H :    0.194911
   2 C :   -0.063616
   3 C :    0.283733
   4 H :    0.133388
   5 H :    0.136606
   6 O :   -0.274610
   7 C :    0.360673
   8 C :   -0.106747
   9 O :   -0.487599
  10 N :   -0.165908
  11 H :    0.154116
  12 H :    0.158322
  13 H :    0.176609
  14 C :    0.193612
  15 C :   -0.142181
  16 O :   -0.316252
  17 H :    0.145210
  18 H :    0.173303
  19 O :   -0.279147
  20 H :    0.238788
  21 N :   -0.053963
  22 H :    0.249381
  23 H :    0.242826
  24 H :    0.233639
Sum of atomic charges:    1.0000000

LOEWDIN ATOMIC CHARGES
----------------------
   0 N :    0.351280
   1 H :   -0.006233
   2 C :   -0.025249
   3 C :   -0.443962
   4 H :    0.042335
   5 H :    0.041288
   6 O :    0.140034
   7 C :   -0.351910
   8 C :   -0.027130
   9 O :    0.085459
  10 N :    0.327120
  11 H :    0.037340
  12 H :    0.043585
  13 H :   -0.017979
  14 C :   -0.403325
  15 C :    0.040380
  16 O :    0.125227
  17 H :    0.028593
  18 H :    0.039255
  19 O :    0.352902
  20 H :   -0.081825
  21 N :    0.606041
  22 H :   -0.004908
  23 H :    0.057285
  24 H :    0.044398

  Mayer bond orders larger than 0.100000
B(  0-N ,  1-H ) :   0.9636 B(  0-N ,  2-C ) :   0.8987 B(  0-N ,  7-C ) :   1.3448
B(  2-C ,  3-C ) :   0.9214 B(  2-C ,  4-H ) :   0.9707 B(  2-C ,  5-H ) :   0.9907
B(  3-C ,  6-O ) :   2.1547 B(  3-C , 19-O ) :   1.1996 B(  7-C ,  8-C ) :   0.9290
B(  7-C ,  9-O ) :   1.7151 B(  8-C , 10-N ) :   0.9367 B(  8-C , 11-H ) :   0.9835
B(  8-C , 12-H ) :   0.9729 B(  9-O , 22-H ) :   0.1415 B( 10-N , 13-H ) :   0.9709
B( 10-N , 14-C ) :   1.2271 B( 14-C , 15-C ) :   0.9511 B( 14-C , 16-O ) :   2.0332
B( 15-C , 17-H ) :   0.9960 B( 15-C , 18-H ) :   0.9858 B( 15-C , 21-N ) :   0.8827
B( 19-O , 20-H ) :   0.9518 B( 21-N , 22-H ) :   0.8629 B( 21-N , 23-H ) :   0.9231
B( 21-N , 24-H ) :   0.9379

Dispersion correction           -0.043571636
FINAL SINGLE POINT ENERGY      -701.344071720257

DIPOLE MOMENT
-------------
                                X             Y             Z
Electronic contribution:     -2.38435       1.29798      -2.65397
Nuclear contribution   :      3.57633      -3.21816       4.34742
                        -----------------------------------------
Total Dipole Moment    :      1.19197      -1.92018       1.69346
                        -----------------------------------------
Magnitude (a.u.)       :      2.82412
Magnitude (Debye)      :      7.17835

Dispersion correction in the Hessian             ... done   (      0.5 sec)

VIBRATIONAL FREQUENCIES
-----------------------

Scaling factor for frequencies =  1.000000000  (already applied!)

   0:         0.00 cm**-1
   1:         0.00 cm**-1
   2:         0.00 cm**-1
   3:         0.00 cm**-1
   4:         0.00 cm**-1
   5:         0.00 cm**-1
   6:        27.32 cm**-1
   7:        39.43 cm**-1
   8:        52.96 cm**-1
   9:        69.15 cm**-1
  10:        82.94 cm**-1
  11:       122.83 cm**-1
  12:       161.45 cm**-1
  13:       243.02 cm**-1
  14:       264.26 cm**-1
  15:       277.22 cm**-1
  16:       295.03 cm**-1
  17:       337.22 cm**-1
  18:       349.59 cm**-1
  19:       407.57 cm**-1
  20:       439.22 cm**-1
  21:       502.27 cm**-1
  22:       514.74 cm**-1
  23:       553.66 cm**-1
  24:       583.99 cm**-1
  25:       596.70 cm**-1
  26:       640.07 cm**-1
  27:       684.88 cm**-1
  28:       699.72 cm**-1
  29:       722.15 cm**-1
  30:       780.14 cm**-1
  31:       873.28 cm**-1
  32:       878.82 cm**-1
  33:       902.16 cm**-1
  34:       911.48 cm**-1
  35:       981.64 cm**-1
  36:      1053.64 cm**-1
  37:      1056.20 cm**-1
  38:      1075.45 cm**-1
  39:      1108.45 cm**-1
  40:      1137.59 cm**-1
  41:      1154.46 cm**-1
  42:      1201.31 cm**-1
  43:      1278.19 cm**-1
  44:      1287.78 cm**-1
  45:      1301.31 cm**-1
  46:      1312.08 cm**-1
  47:      1335.89 cm**-1
  48:      1372.62 cm**-1
  49:      1395.18 cm**-1
  50:      1406.23 cm**-1
  51:      1422.52 cm**-1
  52:      1469.62 cm**-1
  53:      1475.20 cm**-1
  54:      1504.00 cm**-1
  55:      1536.16 cm**-1
  56:      1569.99 cm**-1
  57:      1605.25 cm**-1
  58:      1623.91 cm**-1
  59:      1682.55 cm**-1
  60:      1730.36 cm**-1
  61:      1818.96 cm**-1
  62:      1879.66 cm**-1
  63:      3060.37 cm**-1
  64:      3117.98 cm**-1
  65:      3122.57 cm**-1
  66:      3132.84 cm**-1
  67:      3172.10 cm**-1
  68:      3178.95 cm**-1
  69:      3202.96 cm**-1
  70:      3473.69 cm**-1
  71:      3554.94 cm**-1
  72:      3659.90 cm**-1
  73:      3674.13 cm**-1
  74:      3801.29 cm**-1

IR SPECTRUM
-----------

 Mode   freq       eps      Int      T**2         TX        TY        TZ
       cm**-1   L/(mol*cm) km/mol    a.u.
----------------------------------------------------------------------------
  6:     27.32   0.000999    5.05  0.011407  (-0.084427  0.038061 -0.053206)
  7:     39.43   0.000354    1.79  0.002799  (-0.029259 -0.006436 -0.043610)
  8:     52.96   0.001322    6.68  0.007790  ( 0.032411  0.053676 -0.062115)
  9:     69.15   0.000720    3.64  0.003249  ( 0.055529  0.012294  0.003786)
 10:     82.94   0.001335    6.75  0.005022  (-0.062206 -0.020394 -0.027145)
 11:    122.83   0.006237   31.52  0.015846  (-0.006770  0.093495 -0.084017)
 12:    161.45   0.004657   23.53  0.009001  ( 0.078274  0.006776  0.053177)
 13:    243.02   0.006596   33.33  0.008469  ( 0.075801 -0.051967  0.004802)
 14:    264.26   0.001124    5.68  0.001328  (-0.032319 -0.016820 -0.000549)
 15:    277.22   0.009467   47.84  0.010657  ( 0.048817 -0.046298 -0.078297)
 16:    295.03   0.000993    5.02  0.001051  ( 0.012856 -0.004872 -0.029354)
 17:    337.22   0.000681    3.44  0.000630  (-0.007715 -0.000793 -0.023875)
 18:    349.59   0.000995    5.03  0.000888  ( 0.012553 -0.023909  0.012611)
 19:    407.57   0.008915   45.05  0.006826  (-0.063210  0.045664 -0.027297)
 20:    439.22   0.004828   24.40  0.003430  (-0.038890  0.024571 -0.036253)
 21:    502.27   0.005377   27.17  0.003341  (-0.009528  0.056740  0.005516)
 22:    514.74   0.010732   54.23  0.006506  (-0.066018 -0.043654 -0.015559)
 23:    553.66   0.003966   20.04  0.002236  ( 0.038691  0.027028  0.002858)
 24:    583.99   0.004711   23.81  0.002517  (-0.017154 -0.026135  0.039242)
 25:    596.70   0.005088   25.71  0.002661  ( 0.008900  0.041326  0.029561)
 26:    640.07   0.026105  131.92  0.012727  (-0.021945 -0.071306  0.084624)
 27:    684.88   0.015822   79.96  0.007209  ( 0.079887 -0.023550 -0.016518)
 28:    699.72   0.005874   29.68  0.002620  (-0.022868  0.009322 -0.044830)
 29:    722.15   0.003091   15.62  0.001336  (-0.031719  0.018008  0.002322)
 30:    780.14   0.002007   10.14  0.000803  (-0.003058  0.001144 -0.028143)
 31:    873.28   0.001639    8.28  0.000586  ( 0.011428  0.000966 -0.021308)
 32:    878.82   0.001822    9.21  0.000647  ( 0.008343 -0.023893 -0.002559)
 33:    902.16   0.001749    8.84  0.000605  (-0.023415  0.004686  0.005889)
 34:    911.48   0.003038   15.35  0.001040  (-0.018050  0.001441 -0.026687)
 35:    981.64   0.001189    6.01  0.000378  ( 0.016868 -0.004632 -0.008488)
 36:   1053.64   0.003268   16.52  0.000968  (-0.012720  0.025496 -0.012493)
 37:   1056.20   0.001142    5.77  0.000337  (-0.017693  0.004301  0.002405)
 38:   1075.45   0.002063   10.42  0.000599  (-0.023643 -0.004845 -0.004005)
 39:   1108.45   0.001143    5.77  0.000322  (-0.013251 -0.001066  0.012041)
 40:   1137.59   0.011807   59.67  0.003239  ( 0.031203 -0.046599  0.009686)
 41:   1154.46   0.003194   16.14  0.000863  ( 0.022735 -0.007864  0.016874)
 42:   1201.31   0.040764  206.00  0.010589  ( 0.090613  0.035346 -0.033601)
 43:   1278.19   0.004239   21.42  0.001035  ( 0.017011 -0.019972  0.018619)
 44:   1287.78   0.004575   23.12  0.001109  (-0.018541  0.002405 -0.027551)
 45:   1301.31   0.007789   39.36  0.001868  (-0.031821  0.028535 -0.006414)
 46:   1312.08   0.006407   32.38  0.001524  (-0.002477  0.003331  0.038814)
 47:   1335.89   0.003395   17.15  0.000793  ( 0.023781 -0.006768  0.013477)
 48:   1372.62   0.004682   23.66  0.001064  (-0.029295 -0.007544 -0.012218)
 49:   1395.18   0.004576   23.12  0.001023  (-0.010943  0.029478  0.005895)
 50:   1406.23   0.012292   62.12  0.002728  ( 0.035623  0.022806 -0.030638)
 51:   1422.52   0.000309    1.56  0.000068  ( 0.003953 -0.004567 -0.005599)
 52:   1469.62   0.002367   11.96  0.000503  ( 0.021937 -0.003852  0.002553)
 53:   1475.20   0.003281   16.58  0.000694  ( 0.006172  0.017046  0.019118)
 54:   1504.00   0.002562   12.95  0.000532  (-0.000892  0.019387 -0.012448)
 55:   1536.16   0.026623  134.54  0.005408  (-0.049674  0.027503  0.046738)
 56:   1569.99   0.038996  197.07  0.007751  ( 0.085081 -0.022635  0.000231)
 57:   1605.25   0.042267  213.60  0.008217  (-0.027622  0.035827 -0.078550)
 58:   1623.91   0.019776   99.94  0.003800  (-0.004370  0.059313 -0.016223)
 59:   1682.55   0.030366  153.46  0.005632  (-0.050821  0.054640 -0.007979)
 60:   1730.36   0.052472  265.17  0.009463  ( 0.051507 -0.080003  0.020237)
 61:   1818.96   0.045378  229.32  0.007785  ( 0.076445  0.041722  0.014167)
 62:   1879.66   0.066177  334.43  0.010987  (-0.031200  0.022496  0.097506)
 63:   3060.37   0.154954  783.08  0.015801  (-0.093708  0.067277 -0.049932)
 64:   3117.98   0.002563   12.95  0.000257  ( 0.011403 -0.005392  0.009872)
 65:   3122.57   0.000391    1.98  0.000039  ( 0.000109  0.000257  0.006247)
 66:   3132.84   0.001288    6.51  0.000128  ( 0.010868 -0.002151  0.002352)
 67:   3172.10   0.000190    0.96  0.000019  (-0.002964 -0.002484 -0.001937)
 68:   3178.95   0.000132    0.67  0.000013  (-0.000988 -0.003154  0.001426)
 69:   3202.96   0.000198    1.00  0.000019  (-0.001622  0.003014 -0.002748)
 70:   3473.69   0.017264   87.25  0.001551  (-0.038737 -0.002116  0.006777)
 71:   3554.94   0.021363  107.96  0.001875  ( 0.004455 -0.041450 -0.011721)
 72:   3659.90   0.008711   44.02  0.000743  ( 0.019013  0.019241 -0.003325)
 73:   3674.13   0.014981   75.71  0.001272  (-0.021648  0.027731  0.005898)
 74:   3801.29   0.022206  112.22  0.001823  ( 0.029343  0.028246  0.012811)

--------------------------
THERMOCHEMISTRY AT 298.15K
--------------------------

Temperature         ... 298.15 K
Pressure            ... 1.00 atm
Total Mass          ... 190.18 AMU

Throughout the following assumptions are being made:
  (1) The electronic state is orbitally nondegenerate
  (2) There are no thermally accessible electronically excited states
  (3) Hindered rotations indicated by low frequency modes are not
      treated as such but are treated as vibrations and this may
      cause some error
  (4) All equations used are the standard statistical mechanics
      equations for an ideal gas
  (5) All vibrations are strictly harmonic

freq.      27.32  E(vib)   ...       0.55
freq.      39.43  E(vib)   ...       0.54
freq.      52.96  E(vib)   ...       0.52
freq.      69.15  E(vib)   ...       0.50
freq.      82.94  E(vib)   ...       0.48
freq.     122.83  E(vib)   ...       0.43
freq.     161.45  E(vib)   ...       0.39
freq.     243.02  E(vib)   ...       0.31
freq.     264.26  E(vib)   ...       0.29
freq.     277.22  E(vib)   ...       0.28
freq.     295.03  E(vib)   ...       0.27
freq.     337.22  E(vib)   ...       0.24
freq.     349.59  E(vib)   ...       0.23
freq.     407.57  E(vib)   ...       0.19
freq.     439.22  E(vib)   ...       0.17
freq.     502.27  E(vib)   ...       0.14
freq.     514.74  E(vib)   ...       0.13
freq.     553.66  E(vib)   ...       0.12
freq.     583.99  E(vib)   ...       0.11
freq.     596.70  E(vib)   ...       0.10
freq.     640.07  E(vib)   ...       0.09
freq.     684.88  E(vib)   ...       0.07
freq.     699.72  E(vib)   ...       0.07
freq.     722.15  E(vib)   ...       0.07
freq.     780.14  E(vib)   ...       0.05
freq.     873.28  E(vib)   ...       0.04
freq.     878.82  E(vib)   ...       0.04
freq.     902.16  E(vib)   ...       0.03
freq.     911.48  E(vib)   ...       0.03
freq.     981.64  E(vib)   ...       0.02
freq.    1053.64  E(vib)   ...       0.02
freq.    1056.20  E(vib)   ...       0.02
freq.    1075.45  E(vib)   ...       0.02
freq.    1108.45  E(vib)   ...       0.02
freq.    1137.59  E(vib)   ...       0.01
freq.    1154.46  E(vib)   ...       0.01
freq.    1201.31  E(vib)   ...       0.01
freq.    1278.19  E(vib)   ...       0.01
freq.    1287.78  E(vib)   ...       0.01
freq.    1301.31  E(vib)   ...       0.01
freq.    1312.08  E(vib)   ...       0.01
freq.    1335.89  E(vib)   ...       0.01
freq.    1372.62  E(vib)   ...       0.01
freq.    1395.18  E(vib)   ...       0.00
freq.    1406.23  E(vib)   ...       0.00
freq.    1422.52  E(vib)   ...       0.00
freq.    1469.62  E(vib)   ...       0.00
freq.    1475.20  E(vib)   ...       0.00
freq.    1504.00  E(vib)   ...       0.00
freq.    1536.16  E(vib)   ...       0.00
freq.    1569.99  E(vib)   ...       0.00
freq.    1605.25  E(vib)   ...       0.00
freq.    1623.91  E(vib)   ...       0.00
freq.    1682.55  E(vib)   ...       0.00
freq.    1730.36  E(vib)   ...       0.00
freq.    1818.96  E(vib)   ...       0.00
freq.    1879.66  E(vib)   ...       0.00
freq.    3060.37  E(vib)   ...       0.00
freq.    3117.98  E(vib)   ...       0.00
freq.    3122.57  E(vib)   ...       0.00
freq.    3132.84  E(vib)   ...       0.00
freq.    3172.10  E(vib)   ...       0.00
freq.    3178.95  E(vib)   ...       0.00
freq.    3202.96  E(vib)   ...       0.00
freq.    3473.69  E(vib)   ...       0.00
freq.    3554.94  E(vib)   ...       0.00
freq.    3659.90  E(vib)   ...       0.00
freq.    3674.13  E(vib)   ...       0.00
freq.    3801.29  E(vib)   ...       0.00

------------
INNER ENERGY
------------

The inner energy is: U= E(el) + E(ZPE) + E(vib) + E(rot) + E(trans)
    E(el)   - is the total energy from the electronic structure calculation
              = E(kin-el) + E(nuc-el) + E(el-el) + E(nuc-nuc)
    E(ZPE)  - the the zero temperature vibrational energy from the frequency calculation
    E(vib)  - the the finite temperature correction to E(ZPE) due to population
              of excited vibrational states
    E(rot)  - is the rotational thermal energy
    E(trans)- is the translational thermal energy

Summary of contributions to the inner energy U:
Electronic energy                ...   -701.34407172 Eh
Zero point energy                ...      0.20945745 Eh     131.44 kcal/mol
Thermal vibrational correction   ...      0.01066712 Eh       6.69 kcal/mol
Thermal rotational correction    ...      0.00141627 Eh       0.89 kcal/mol
Thermal translational correction ...      0.00141627 Eh       0.89 kcal/mol
-----------------------------------------------------------------------
Total thermal energy                   -701.12111461 Eh

Summary of corrections to the electronic energy:
(perhaps to be used in another calculation)
Total thermal correction                  0.01349966 Eh       8.47 kcal/mol
Non-thermal (ZPE) correction              0.20945745 Eh     131.44 kcal/mol
-----------------------------------------------------------------------
Total correction                          0.22295711 Eh     139.91 kcal/mol

--------
ENTHALPY
--------

The enthalpy is H = U + kB*T
                kB is Boltzmann's constant
Total free energy                 ...   -701.12111461 Eh
Thermal Enthalpy correction       ...      0.00094421 Eh       0.59 kcal/mol
-----------------------------------------------------------------------
Total Enthalpy                    ...   -701.12017040 Eh

Note: Only C1 symmetry has been detected, increase convergence thresholds
      if your molecule has a higher symmetry. Symmetry factor of 1.0 is
      used for the rotational entropy correction.

Note: Rotational entropy computed according to Herzberg
Infrared and Raman Spectra, Chapter V,1, Van Nostrand Reinhold, 1945
Point Group:  C1, Symmetry Number:   1
Rotational constants in cm-1:     0.049999     0.014037     0.012640

Vibrational entropy computed according to the QRRHO of S. Grimme
Chem.Eur.J. 2012 18 9955

-------
ENTROPY
-------

The entropy contributions are T*S = T*(S(el)+S(vib)+S(rot)+S(trans))
     S(el)   - electronic entropy
     S(vib)  - vibrational entropy
     S(rot)  - rotational entropy
     S(trans)- translational entropy
The entropies will be listed as multiplied by the temperature to get
units of energy

Electronic entropy                ...      0.00000000 Eh      0.00 kcal/mol
Vibrational entropy               ...      0.01898052 Eh     11.91 kcal/mol
Rotational entropy                ...      0.01500248 Eh      9.41 kcal/mol
Translational entropy             ...      0.01978162 Eh     12.41 kcal/mol
-----------------------------------------------------------------------

                             ****ORCA TERMINATED NORMALLY****
TOTAL RUN TIME: 0 days 2 hours 23 minutes 11 seconds 380 msec
