                         Program Version 5.0.2 -  RELEASE  -
|  1> # GGG-H_tt_008 (old 039)
|  2> ! wB97X-D3BJ Opt Freq def2-TZVPP def2/J RIJCOSX VeryTightSCF
|  3> ! PAL8 defgrid3 VeryTightOpt
|  4>
|  5> %maxcore 4096
|  6>
|  7> %geom
|  8>   MaxIter 300
|  9>   # MaxStep 0.1
| 10>   Calc_Hess true
| 11>   Recalc_Hess 10
| 12> end
| 13>
| 14> %chelpg
| 15>   grid 0.1
| 16>   rmax 3.0
| 17> end
| 18>
| 19> * xyz 1 1
| 20>  N   +0.143836   +2.388992   -2.001690
| 21>  H   +0.947666   +2.582929   -1.402817
| 22>  C   +0.143699   +2.895644   -3.379827
| 23>  C   -0.683658   +4.194763   -3.556789
| 24>  H   +1.178833   +3.112456   -3.673519
| 25>  H   -0.271151   +2.109080   -4.036155
| 26>  O   -0.181485   +5.230313   -3.921132
| 27>  C   -0.944852   +1.782414   -1.470627
| 28>  C   -0.779739   +1.250073   -0.034785
| 29>  O   -2.004116   +1.622324   -2.087629
| 30>  N   +0.000000   +0.000000   +0.000000
| 31>  H   -1.780433   +1.040952   +0.364591
| 32>  H   -0.268259   +1.985700   +0.606798
| 33>  H   -0.508111   -0.883064   -0.066904
| 34>  C   +1.332752   +0.000000   +0.000000
| 35>  C   +2.078496   -1.360236   +0.021795
| 36>  O   +2.044967   +1.023857   +0.000000
| 37>  H   +1.899774   -1.940144   -0.896892
| 38>  H   +1.807441   -1.973087   +0.894816
| 39>  O   -1.993155   +4.071209   -3.280464
| 40>  H   -2.201193   +3.137657   -3.009405
| 41>  N   +3.521118   -0.953035   +0.098806
| 42>  H   +4.093774   -1.283184   -0.691582
| 43>  H   +3.402068   +0.132755   +0.063762
| 44>  H   +3.985535   -1.230786   +0.975946
| 45> *
| 46>
| 47>                          ****END OF INPUT****
 Total Charge           Charge          ....    1
 Multiplicity           Mult            ....    1
 Number of Electrons    NEL             ....  100
Dispersion correction           -0.041759291
FINAL SINGLE POINT ENERGY      -701.320284179221
Dispersion correction            ... done
Dispersion correction in the Hessian             ... done   (      0.6 sec)
Dispersion correction           -0.041978585
FINAL SINGLE POINT ENERGY      -701.324138309274
Dispersion correction            ... done
Dispersion correction           -0.041940569
FINAL SINGLE POINT ENERGY      -701.324279444342
FINAL SINGLE POINT ENERGY      -701.324360533033
FINAL SINGLE POINT ENERGY      -701.324442902288
FINAL SINGLE POINT ENERGY      -701.324596642306
FINAL SINGLE POINT ENERGY      -701.324899317921
FINAL SINGLE POINT ENERGY      -701.325471575514
FINAL SINGLE POINT ENERGY      -701.326114501684
FINAL SINGLE POINT ENERGY      -701.326817910603
FINAL SINGLE POINT ENERGY      -701.332105841231
FINAL SINGLE POINT ENERGY      -701.332696426213
FINAL SINGLE POINT ENERGY      -701.333218208937
FINAL SINGLE POINT ENERGY      -701.331794697647
FINAL SINGLE POINT ENERGY      -701.332754548797
FINAL SINGLE POINT ENERGY      -701.333590633128
FINAL SINGLE POINT ENERGY      -701.333604101330
Dispersion correction           -0.042161505
FINAL SINGLE POINT ENERGY      -701.333607566216
Dispersion correction            ... done
Dispersion correction           -0.042159444
FINAL SINGLE POINT ENERGY      -701.333607536512
Dispersion correction            ... done
                    ***********************HURRAY********************

CARTESIAN COORDINATES (ANGSTROEM)
---------------------------------
  N     -0.197307    3.401853   -1.760546
  H     -0.471928    4.090996   -1.080875
  C     -0.153909    3.802619   -3.165360
  C     -1.388004    3.339388   -3.949980
  H     -0.115669    4.887097   -3.214569
  H      0.749434    3.390083   -3.619468
  O     -2.156328    4.106305   -4.448472
  C      0.079891    2.156142   -1.360158
  C      0.056171    1.916750    0.156005
  O      0.343510    1.237223   -2.129950
  N      0.267687    0.508096    0.424494
  H     -0.900166    2.222128    0.580217
  H      0.846257    2.496105    0.633131
  H     -0.529658   -0.099648    0.322492
  C      1.477030   -0.014896    0.209228
  C      1.567878   -1.543896    0.068948
  O      2.519922    0.619105    0.127660
  H      0.984489   -1.888444   -0.782974
  H      1.242128   -2.058109    0.971219
  O     -1.542257    2.009255   -4.034848
  H     -0.813180    1.555481   -3.580434
  N      3.020358   -1.797037   -0.172172
  H      3.207983   -2.196631   -1.089536
  H      3.416644   -0.815772   -0.123459
  H      3.452830   -2.386610    0.535705

 Multiplicity           Mult            ....    1
 Number of Electrons    NEL             ....  100
 Basis Dimension        Dim             ....  571

ORBITAL ENERGIES
----------------

  NO   OCC          E(Eh)            E(eV)
   0   2.0000     -19.375531      -527.2350
   1   2.0000     -19.339240      -526.2475
   2   2.0000     -19.331969      -526.0496
   3   2.0000     -19.284278      -524.7519
   4   2.0000     -14.716457      -400.4552
   5   2.0000     -14.616178      -397.7264
   6   2.0000     -14.584089      -396.8532
   7   2.0000     -10.567436      -287.5545
   8   2.0000     -10.530908      -286.5606
   9   2.0000     -10.525630      -286.4170
  10   2.0000     -10.492760      -285.5225
  11   2.0000     -10.474279      -285.0196
  12   2.0000     -10.435629      -283.9679
  13   2.0000      -1.379938       -37.5500
  14   2.0000      -1.333384       -36.2832
  15   2.0000      -1.319153       -35.8960
  16   2.0000      -1.314164       -35.7602
  17   2.0000      -1.244260       -33.8580
  18   2.0000      -1.239644       -33.7324
  19   2.0000      -1.205022       -32.7903
  20   2.0000      -1.079149       -29.3651
  21   2.0000      -1.027450       -27.9583
  22   2.0000      -0.975807       -26.5531
  23   2.0000      -0.903908       -24.5966
  24   2.0000      -0.897270       -24.4159
  25   2.0000      -0.888273       -24.1711
  26   2.0000      -0.860164       -23.4062
  27   2.0000      -0.827403       -22.5148
  28   2.0000      -0.820825       -22.3358
  29   2.0000      -0.792224       -21.5575
  30   2.0000      -0.783705       -21.3257
  31   2.0000      -0.768896       -20.9227
  32   2.0000      -0.754707       -20.5366
  33   2.0000      -0.746435       -20.3115
  34   2.0000      -0.721932       -19.6448
  35   2.0000      -0.701378       -19.0855
  36   2.0000      -0.694507       -18.8985
  37   2.0000      -0.687460       -18.7067
  38   2.0000      -0.668257       -18.1842
  39   2.0000      -0.659814       -17.9545
  40   2.0000      -0.639510       -17.4019
  41   2.0000      -0.629388       -17.1265
  42   2.0000      -0.617688       -16.8082
  43   2.0000      -0.588011       -16.0006
  44   2.0000      -0.574058       -15.6209
  45   2.0000      -0.551791       -15.0150
  46   2.0000      -0.529291       -14.4028
  47   2.0000      -0.514211       -13.9924
  48   2.0000      -0.512641       -13.9497
  49   2.0000      -0.464271       -12.6334
  50   0.0000      -0.092518        -2.5176
  51   0.0000      -0.080396        -2.1877
  52   0.0000      -0.047219        -1.2849
  53   0.0000      -0.040808        -1.1105
  54   0.0000      -0.031511        -0.8575

MULLIKEN ATOMIC CHARGES
-----------------------
   0 N :   -0.205325
   1 H :    0.193662
   2 C :   -0.111599
   3 C :    0.264343
   4 H :    0.136051
   5 H :    0.142862
   6 O :   -0.263241
   7 C :    0.323391
   8 C :   -0.113169
   9 O :   -0.446147
  10 N :   -0.198028
  11 H :    0.156709
  12 H :    0.157056
  13 H :    0.188653
  14 C :    0.298101
  15 C :   -0.176890
  16 O :   -0.350014
  17 H :    0.177449
  18 H :    0.179853
  19 O :   -0.243990
  20 H :    0.223701
  21 N :   -0.048282
  22 H :    0.241390
  23 H :    0.234403
  24 H :    0.239063
Sum of atomic charges:    1.0000000

LOEWDIN ATOMIC CHARGES
----------------------
   0 N :    0.341524
   1 H :   -0.008736
   2 C :   -0.026931
   3 C :   -0.452882
   4 H :    0.037506
   5 H :    0.032327
   6 O :    0.147645
   7 C :   -0.380345
   8 C :   -0.019650
   9 O :    0.077411
  10 N :    0.346593
  11 H :    0.036870
  12 H :    0.041925
  13 H :   -0.002709
  14 C :   -0.372938
  15 C :    0.045721
  16 O :    0.141498
  17 H :    0.040687
  18 H :    0.038146
  19 O :    0.368677
  20 H :   -0.143957
  21 N :    0.605792
  22 H :    0.051723
  23 H :    0.004830
  24 H :    0.049273

  Mayer bond orders larger than 0.100000
B(  0-N ,  1-H ) :   0.9617 B(  0-N ,  2-C ) :   0.8736 B(  0-N ,  7-C ) :   1.3341
B(  2-C ,  3-C ) :   0.9420 B(  2-C ,  4-H ) :   0.9749 B(  2-C ,  5-H ) :   0.9812
B(  3-C ,  6-O ) :   2.1602 B(  3-C , 19-O ) :   1.2266 B(  7-C ,  8-C ) :   0.9286
B(  7-C ,  9-O ) :   1.8257 B(  8-C , 10-N ) :   0.9087 B(  8-C , 11-H ) :   0.9795
B(  8-C , 12-H ) :   0.9790 B( 10-N , 13-H ) :   0.9624 B( 10-N , 14-C ) :   1.3414
B( 14-C , 15-C ) :   0.9103 B( 14-C , 16-O ) :   1.8864 B( 15-C , 17-H ) :   0.9798
B( 15-C , 18-H ) :   0.9878 B( 15-C , 21-N ) :   0.8986 B( 16-O , 23-H ) :   0.1800
B( 19-O , 20-H ) :   0.9344 B( 21-N , 22-H ) :   0.9378 B( 21-N , 23-H ) :   0.8294
B( 21-N , 24-H ) :   0.9389

Dispersion correction           -0.042159515
FINAL SINGLE POINT ENERGY      -701.333607583218

DIPOLE MOMENT
-------------
                                X             Y             Z
Electronic contribution:     -3.19554       3.43537      -3.63787
Nuclear contribution   :      6.76760      -8.07136       7.67436
                        -----------------------------------------
Total Dipole Moment    :      3.57206      -4.63600       4.03648
                        -----------------------------------------
Magnitude (a.u.)       :      7.10952
Magnitude (Debye)      :     18.07096

Dispersion correction in the Hessian             ... done   (      0.5 sec)

VIBRATIONAL FREQUENCIES
-----------------------

Scaling factor for frequencies =  1.000000000  (already applied!)

   0:         0.00 cm**-1
   1:         0.00 cm**-1
   2:         0.00 cm**-1
   3:         0.00 cm**-1
   4:         0.00 cm**-1
   5:         0.00 cm**-1
   6:        28.69 cm**-1
   7:        33.30 cm**-1
   8:        60.38 cm**-1
   9:        65.16 cm**-1
  10:        79.31 cm**-1
  11:        98.97 cm**-1
  12:       156.44 cm**-1
  13:       214.67 cm**-1
  14:       228.92 cm**-1
  15:       270.95 cm**-1
  16:       283.20 cm**-1
  17:       330.38 cm**-1
  18:       348.35 cm**-1
  19:       408.61 cm**-1
  20:       455.18 cm**-1
  21:       490.50 cm**-1
  22:       523.31 cm**-1
  23:       560.62 cm**-1
  24:       593.92 cm**-1
  25:       607.06 cm**-1
  26:       610.36 cm**-1
  27:       710.45 cm**-1
  28:       723.95 cm**-1
  29:       737.19 cm**-1
  30:       783.73 cm**-1
  31:       879.57 cm**-1
  32:       888.62 cm**-1
  33:       923.15 cm**-1
  34:       932.94 cm**-1
  35:      1019.32 cm**-1
  36:      1036.27 cm**-1
  37:      1053.72 cm**-1
  38:      1071.01 cm**-1
  39:      1112.62 cm**-1
  40:      1117.84 cm**-1
  41:      1129.47 cm**-1
  42:      1241.25 cm**-1
  43:      1282.31 cm**-1
  44:      1294.49 cm**-1
  45:      1311.85 cm**-1
  46:      1317.43 cm**-1
  47:      1324.85 cm**-1
  48:      1377.96 cm**-1
  49:      1383.27 cm**-1
  50:      1400.93 cm**-1
  51:      1417.04 cm**-1
  52:      1446.59 cm**-1
  53:      1479.32 cm**-1
  54:      1483.66 cm**-1
  55:      1503.45 cm**-1
  56:      1595.34 cm**-1
  57:      1604.99 cm**-1
  58:      1650.29 cm**-1
  59:      1668.44 cm**-1
  60:      1745.44 cm**-1
  61:      1797.52 cm**-1
  62:      1894.66 cm**-1
  63:      2928.81 cm**-1
  64:      3103.92 cm**-1
  65:      3117.68 cm**-1
  66:      3130.79 cm**-1
  67:      3172.55 cm**-1
  68:      3193.73 cm**-1
  69:      3193.85 cm**-1
  70:      3511.41 cm**-1
  71:      3571.98 cm**-1
  72:      3650.07 cm**-1
  73:      3657.74 cm**-1
  74:      3671.33 cm**-1

IR SPECTRUM
-----------

 Mode   freq       eps      Int      T**2         TX        TY        TZ
       cm**-1   L/(mol*cm) km/mol    a.u.
----------------------------------------------------------------------------
  6:     28.69   0.001366    6.90  0.014860  (-0.102016  0.041268 -0.052441)
  7:     33.30   0.001735    8.77  0.016262  (-0.055654  0.067233 -0.092977)
  8:     60.38   0.005066   25.60  0.026185  ( 0.011918  0.033224 -0.157921)
  9:     65.16   0.000842    4.25  0.004031  ( 0.005482 -0.020209  0.059937)
 10:     79.31   0.000945    4.77  0.003717  ( 0.017999  0.011556  0.057090)
 11:     98.97   0.001437    7.26  0.004531  (-0.033912 -0.000864  0.058136)
 12:    156.44   0.003493   17.65  0.006968  (-0.073319 -0.017969 -0.035635)
 13:    214.67   0.000615    3.11  0.000894  ( 0.000527 -0.028780 -0.008119)
 14:    228.92   0.002072   10.47  0.002825  ( 0.017027  0.049683  0.008136)
 15:    270.95   0.000563    2.85  0.000649  ( 0.019509  0.016360 -0.000740)
 16:    283.20   0.000132    0.67  0.000146  (-0.010964  0.004953  0.000890)
 17:    330.38   0.002816   14.23  0.002660  (-0.000815 -0.049917  0.012940)
 18:    348.35   0.004726   23.88  0.004234  ( 0.012627  0.007336 -0.063406)
 19:    408.61   0.035866  181.25  0.027392  (-0.096060  0.134359 -0.010577)
 20:    455.18   0.005990   30.27  0.004107  ( 0.009530 -0.031723 -0.054861)
 21:    490.50   0.013868   70.09  0.008823  ( 0.091262  0.019932  0.009866)
 22:    523.31   0.000458    2.31  0.000273  (-0.011434 -0.011784 -0.001806)
 23:    560.62   0.010343   52.27  0.005758  (-0.039983 -0.018630  0.061740)
 24:    593.92   0.001385    7.00  0.000728  (-0.012051 -0.005322 -0.023541)
 25:    607.06   0.007001   35.38  0.003599  ( 0.035649  0.016968 -0.045167)
 26:    610.36   0.004314   21.80  0.002205  ( 0.013350  0.028962 -0.034474)
 27:    710.45   0.005107   25.81  0.002243  ( 0.011477  0.001693 -0.045919)
 28:    723.95   0.001644    8.31  0.000709  (-0.002150  0.000257 -0.026534)
 29:    737.19   0.019540   98.75  0.008271  (-0.014700  0.000766  0.089749)
 30:    783.73   0.000695    3.51  0.000277  ( 0.010263 -0.002709 -0.012806)
 31:    879.57   0.006517   32.93  0.002312  (-0.015029  0.045645 -0.001683)
 32:    888.62   0.001904    9.62  0.000669  ( 0.008992 -0.022363 -0.009362)
 33:    923.15   0.001108    5.60  0.000374  ( 0.008776  0.016994  0.002931)
 34:    932.94   0.003345   16.90  0.001119  ( 0.004277 -0.008047  0.032183)
 35:   1019.32   0.001186    5.99  0.000363  ( 0.016400 -0.009112 -0.003343)
 36:   1036.27   0.000867    4.38  0.000261  (-0.015920  0.002201 -0.001638)
 37:   1053.72   0.001429    7.22  0.000423  ( 0.017072 -0.011408  0.001231)
 38:   1071.01   0.006433   32.51  0.001874  ( 0.019461 -0.037664 -0.008777)
 39:   1112.62   0.006476   32.73  0.001816  (-0.010203  0.040547 -0.008260)
 40:   1117.84   0.012777   64.57  0.003567  (-0.011980  0.058479  0.001884)
 41:   1129.47   0.003551   17.94  0.000981  ( 0.004773 -0.029922 -0.007928)
 42:   1241.25   0.004479   22.63  0.001126  (-0.016019 -0.026044 -0.013823)
 43:   1282.31   0.004963   25.08  0.001208  ( 0.006837 -0.029208  0.017548)
 44:   1294.49   0.015172   76.67  0.003657  (-0.024616  0.037513 -0.040550)
 45:   1311.85   0.005521   27.90  0.001313  (-0.018648  0.030717  0.004708)
 46:   1317.43   0.002498   12.62  0.000592  ( 0.010941 -0.007589  0.020355)
 47:   1324.85   0.001071    5.41  0.000252  ( 0.001296 -0.006559  0.014409)
 48:   1377.96   0.007127   36.02  0.001614  ( 0.009642  0.031938  0.022386)
 49:   1383.27   0.016114   81.43  0.003635  (-0.044115  0.040364  0.007744)
 50:   1400.93   0.001893    9.57  0.000422  ( 0.009957 -0.002027  0.017843)
 51:   1417.04   0.040959  206.99  0.009020  ( 0.026342  0.088908  0.020533)
 52:   1446.59   0.065180  329.39  0.014061  ( 0.115482 -0.026539 -0.004513)
 53:   1479.32   0.003429   17.33  0.000723  ( 0.002586  0.013086  0.023353)
 54:   1483.66   0.003821   19.31  0.000804  (-0.021894  0.017711  0.003249)
 55:   1503.45   0.014735   74.46  0.003058  ( 0.037019 -0.041043 -0.001872)
 56:   1595.34   0.053208  268.89  0.010408  ( 0.021441 -0.081272  0.057820)
 57:   1604.99   0.022998  116.22  0.004472  ( 0.045924 -0.048219 -0.006116)
 58:   1650.29   0.008032   40.59  0.001519  (-0.008445  0.036219  0.011651)
 59:   1668.44   0.006385   32.27  0.001194  (-0.006745  0.012311 -0.031579)
 60:   1745.44   0.045849  231.70  0.008197  (-0.006518 -0.085352 -0.029490)
 61:   1797.52   0.043435  219.50  0.007541  ( 0.084674 -0.018702 -0.004607)
 62:   1894.66   0.081627  412.51  0.013444  (-0.067568  0.077375 -0.053778)
 63:   2928.81   0.080036  404.47  0.008528  (-0.009686  0.091723  0.004565)
 64:   3103.92   0.000736    3.72  0.000074  ( 0.003754  0.003100 -0.007095)
 65:   3117.68   0.001439    7.27  0.000144  ( 0.006847 -0.008687  0.004654)
 66:   3130.79   0.001094    5.53  0.000109  ( 0.001321 -0.010330 -0.000746)
 67:   3172.55   0.000097    0.49  0.000010  (-0.002653 -0.001131 -0.001124)
 68:   3193.73   0.000423    2.14  0.000041  ( 0.000959 -0.000042  0.006353)
 69:   3193.85   0.000076    0.39  0.000007  ( 0.000246 -0.002722 -0.000069)
 70:   3511.41   0.024522  123.92  0.002179  ( 0.026425 -0.037927 -0.006528)
 71:   3571.98   0.021546  108.88  0.001882  (-0.007400  0.006574 -0.042242)
 72:   3650.07   0.010995   55.56  0.000940  ( 0.025605  0.015484 -0.006683)
 73:   3657.74   0.070800  357.80  0.006040  ( 0.047143 -0.028128  0.055015)
 74:   3671.33   0.019125   96.65  0.001626  (-0.018262  0.035753  0.003722)

--------------------------
THERMOCHEMISTRY AT 298.15K
--------------------------

Temperature         ... 298.15 K
Pressure            ... 1.00 atm
Total Mass          ... 190.18 AMU

Throughout the following assumptions are being made:
  (1) The electronic state is orbitally nondegenerate
  (2) There are no thermally accessible electronically excited states
  (3) Hindered rotations indicated by low frequency modes are not
      treated as such but are treated as vibrations and this may
      cause some error
  (4) All equations used are the standard statistical mechanics
      equations for an ideal gas
  (5) All vibrations are strictly harmonic

freq.      28.69  E(vib)   ...       0.55
freq.      33.30  E(vib)   ...       0.55
freq.      60.38  E(vib)   ...       0.51
freq.      65.16  E(vib)   ...       0.50
freq.      79.31  E(vib)   ...       0.49
freq.      98.97  E(vib)   ...       0.46
freq.     156.44  E(vib)   ...       0.40
freq.     214.67  E(vib)   ...       0.34
freq.     228.92  E(vib)   ...       0.32
freq.     270.95  E(vib)   ...       0.29
freq.     283.20  E(vib)   ...       0.28
freq.     330.38  E(vib)   ...       0.24
freq.     348.35  E(vib)   ...       0.23
freq.     408.61  E(vib)   ...       0.19
freq.     455.18  E(vib)   ...       0.16
freq.     490.50  E(vib)   ...       0.15
freq.     523.31  E(vib)   ...       0.13
freq.     560.62  E(vib)   ...       0.11
freq.     593.92  E(vib)   ...       0.10
freq.     607.06  E(vib)   ...       0.10
freq.     610.36  E(vib)   ...       0.10
freq.     710.45  E(vib)   ...       0.07
freq.     723.95  E(vib)   ...       0.06
freq.     737.19  E(vib)   ...       0.06
freq.     783.73  E(vib)   ...       0.05
freq.     879.57  E(vib)   ...       0.04
freq.     888.62  E(vib)   ...       0.04
freq.     923.15  E(vib)   ...       0.03
freq.     932.94  E(vib)   ...       0.03
freq.    1019.32  E(vib)   ...       0.02
freq.    1036.27  E(vib)   ...       0.02
freq.    1053.72  E(vib)   ...       0.02
freq.    1071.01  E(vib)   ...       0.02
freq.    1112.62  E(vib)   ...       0.01
freq.    1117.84  E(vib)   ...       0.01
freq.    1129.47  E(vib)   ...       0.01
freq.    1241.25  E(vib)   ...       0.01
freq.    1282.31  E(vib)   ...       0.01
freq.    1294.49  E(vib)   ...       0.01
freq.    1311.85  E(vib)   ...       0.01
freq.    1317.43  E(vib)   ...       0.01
freq.    1324.85  E(vib)   ...       0.01
freq.    1377.96  E(vib)   ...       0.01
freq.    1383.27  E(vib)   ...       0.00
freq.    1400.93  E(vib)   ...       0.00
freq.    1417.04  E(vib)   ...       0.00
freq.    1446.59  E(vib)   ...       0.00
freq.    1479.32  E(vib)   ...       0.00
freq.    1483.66  E(vib)   ...       0.00
freq.    1503.45  E(vib)   ...       0.00
freq.    1595.34  E(vib)   ...       0.00
freq.    1604.99  E(vib)   ...       0.00
freq.    1650.29  E(vib)   ...       0.00
freq.    1668.44  E(vib)   ...       0.00
freq.    1745.44  E(vib)   ...       0.00
freq.    1797.52  E(vib)   ...       0.00
freq.    1894.66  E(vib)   ...       0.00
freq.    2928.81  E(vib)   ...       0.00
freq.    3103.92  E(vib)   ...       0.00
freq.    3117.68  E(vib)   ...       0.00
freq.    3130.79  E(vib)   ...       0.00
freq.    3172.55  E(vib)   ...       0.00
freq.    3193.73  E(vib)   ...       0.00
freq.    3193.85  E(vib)   ...       0.00
freq.    3511.41  E(vib)   ...       0.00
freq.    3571.98  E(vib)   ...       0.00
freq.    3650.07  E(vib)   ...       0.00
freq.    3657.74  E(vib)   ...       0.00
freq.    3671.33  E(vib)   ...       0.00

------------
INNER ENERGY
------------

The inner energy is: U= E(el) + E(ZPE) + E(vib) + E(rot) + E(trans)
    E(el)   - is the total energy from the electronic structure calculation
              = E(kin-el) + E(nuc-el) + E(el-el) + E(nuc-nuc)
    E(ZPE)  - the the zero temperature vibrational energy from the frequency calculation
    E(vib)  - the the finite temperature correction to E(ZPE) due to population
              of excited vibrational states
    E(rot)  - is the rotational thermal energy
    E(trans)- is the translational thermal energy

Summary of contributions to the inner energy U:
Electronic energy                ...   -701.33360758 Eh
Zero point energy                ...      0.20889213 Eh     131.08 kcal/mol
Thermal vibrational correction   ...      0.01080385 Eh       6.78 kcal/mol
Thermal rotational correction    ...      0.00141627 Eh       0.89 kcal/mol
Thermal translational correction ...      0.00141627 Eh       0.89 kcal/mol
-----------------------------------------------------------------------
Total thermal energy                   -701.11107905 Eh

Summary of corrections to the electronic energy:
(perhaps to be used in another calculation)
Total thermal correction                  0.01363639 Eh       8.56 kcal/mol
Non-thermal (ZPE) correction              0.20889213 Eh     131.08 kcal/mol
-----------------------------------------------------------------------
Total correction                          0.22252853 Eh     139.64 kcal/mol

--------
ENTHALPY
--------

The enthalpy is H = U + kB*T
                kB is Boltzmann's constant
Total free energy                 ...   -701.11107905 Eh
Thermal Enthalpy correction       ...      0.00094421 Eh       0.59 kcal/mol
-----------------------------------------------------------------------
Total Enthalpy                    ...   -701.11013485 Eh

Note: Only C1 symmetry has been detected, increase convergence thresholds
      if your molecule has a higher symmetry. Symmetry factor of 1.0 is
      used for the rotational entropy correction.

Note: Rotational entropy computed according to Herzberg
Infrared and Raman Spectra, Chapter V,1, Van Nostrand Reinhold, 1945
Point Group:  C1, Symmetry Number:   1
Rotational constants in cm-1:     0.065774     0.010806     0.010239

Vibrational entropy computed according to the QRRHO of S. Grimme
Chem.Eur.J. 2012 18 9955

-------
ENTROPY
-------

The entropy contributions are T*S = T*(S(el)+S(vib)+S(rot)+S(trans))
     S(el)   - electronic entropy
     S(vib)  - vibrational entropy
     S(rot)  - rotational entropy
     S(trans)- translational entropy
The entropies will be listed as multiplied by the temperature to get
units of energy

Electronic entropy                ...      0.00000000 Eh      0.00 kcal/mol
Vibrational entropy               ...      0.01937477 Eh     12.16 kcal/mol
Rotational entropy                ...      0.01509597 Eh      9.47 kcal/mol
Translational entropy             ...      0.01978162 Eh     12.41 kcal/mol
-----------------------------------------------------------------------

                             ****ORCA TERMINATED NORMALLY****
TOTAL RUN TIME: 0 days 3 hours 29 minutes 7 seconds 510 msec
