                         Program Version 5.0.2 -  RELEASE  -
|  1> # GGG-H_tt_025 (old 153)
|  2> ! wB97X-D3BJ Opt Freq def2-TZVPP def2/J RIJCOSX VeryTightSCF
|  3> ! PAL8 defgrid3 VeryTightOpt
|  4>
|  5> %maxcore 4096
|  6>
|  7> %geom
|  8>   MaxIter 300
|  9>   # MaxStep 0.1
| 10>   Calc_Hess true
| 11>   Recalc_Hess 10
| 12> end
| 13>
| 14> %chelpg
| 15>   grid 0.1
| 16>   rmax 3.0
| 17> end
| 18>
| 19> * xyz 1 1
| 20>  N   -3.269947   +1.554418   +0.150729
| 21>  H   -3.034395   +2.540950   +0.048685
| 22>  C   -4.671185   +1.175293   +0.053959
| 23>  C   -5.307151   +1.413400   -1.317017
| 24>  H   -4.740197   +0.098016   +0.274772
| 25>  H   -5.273036   +1.714125   +0.804605
| 26>  O   -6.473766   +1.208696   -1.551033
| 27>  C   -2.281000   +0.637258   +0.068786
| 28>  C   -0.840818   +1.187480   +0.009403
| 29>  O   -2.459478   -0.584766   +0.054554
| 30>  N   +0.000000   +0.000000   +0.000000
| 31>  H   -0.613692   +1.827380   +0.880593
| 32>  H   -0.688143   +1.788566   -0.905707
| 33>  H   -0.590169   -0.856396   +0.006928
| 34>  C   +1.322592   +0.000000   +0.000000
| 35>  C   +2.055965   -1.371031   -0.000334
| 36>  O   +2.058107   +1.010545   +0.000000
| 37>  H   +1.822549   -1.964133   -0.897326
| 38>  H   +1.822522   -1.964825   +0.896197
| 39>  O   -4.411522   +1.880436   -2.224673
| 40>  H   -4.906596   +1.998858   -3.064496
| 41>  N   +3.496347   -0.961306   +0.000198
| 42>  H   +4.019182   -1.258309   -0.835007
| 43>  H   +3.329480   +0.144838   -0.000035
| 44>  H   +4.017127   -1.257629   +0.836948
| 45> *
| 46>
| 47>                          ****END OF INPUT****
 Total Charge           Charge          ....    1
 Multiplicity           Mult            ....    1
 Number of Electrons    NEL             ....  100
Dispersion correction           -0.039761225
FINAL SINGLE POINT ENERGY      -701.337887210960
Dispersion correction            ... done
Dispersion correction in the Hessian             ... done   (      0.6 sec)
Dispersion correction           -0.040041442
FINAL SINGLE POINT ENERGY      -701.341410809234
Dispersion correction            ... done
Dispersion correction           -0.040166825
FINAL SINGLE POINT ENERGY      -701.341337752898
FINAL SINGLE POINT ENERGY      -701.341939722748
FINAL SINGLE POINT ENERGY      -701.342007780308
FINAL SINGLE POINT ENERGY      -701.342036468692
FINAL SINGLE POINT ENERGY      -701.342130229378
FINAL SINGLE POINT ENERGY      -701.342202198807
FINAL SINGLE POINT ENERGY      -701.342240450611
FINAL SINGLE POINT ENERGY      -701.342287924337
FINAL SINGLE POINT ENERGY      -701.342302378777
FINAL SINGLE POINT ENERGY      -701.342318157705
FINAL SINGLE POINT ENERGY      -701.342316678518
FINAL SINGLE POINT ENERGY      -701.342314801749
FINAL SINGLE POINT ENERGY      -701.342315413098
Dispersion correction           -0.040367417
FINAL SINGLE POINT ENERGY      -701.342315859228
Dispersion correction            ... done
Dispersion correction           -0.040366712
FINAL SINGLE POINT ENERGY      -701.342315725542
Dispersion correction            ... done
                    ***********************HURRAY********************

CARTESIAN COORDINATES (ANGSTROEM)
---------------------------------
  N     -3.264838    1.651316    0.266991
  H     -2.990207    2.618713    0.274079
  C     -4.665899    1.329126    0.098761
  C     -5.135335    1.212457   -1.344301
  H     -4.883231    0.378513    0.582886
  H     -5.273752    2.094450    0.581335
  O     -6.227225    0.823559   -1.640953
  C     -2.322463    0.709065    0.093613
  C     -0.873025    1.197316    0.137505
  O     -2.562312   -0.474560   -0.078213
  N     -0.052035    0.011138   -0.008124
  H     -0.659899    1.702707    1.081440
  H     -0.685960    1.900471   -0.677372
  H     -0.600350   -0.838017   -0.126853
  C      1.264505    0.028197    0.017761
  C      1.989228   -1.323761   -0.144518
  O      1.974999    1.023946    0.160586
  H      1.771597   -1.783519   -1.106447
  H      1.731875   -2.016820    0.653894
  O     -4.210238    1.613482   -2.238593
  H     -4.608401    1.513898   -3.113915
  N      3.434906   -0.957634   -0.063774
  H      3.954075   -1.170208   -0.912431
  H      3.361419    0.098361    0.070256
  H      3.915344   -1.380333    0.727117

 Multiplicity           Mult            ....    1
 Number of Electrons    NEL             ....  100
 Basis Dimension        Dim             ....  571

ORBITAL ENERGIES
----------------

  NO   OCC          E(Eh)            E(eV)
   0   2.0000     -19.364394      -526.9320
   1   2.0000     -19.359115      -526.7883
   2   2.0000     -19.314193      -525.5659
   3   2.0000     -19.294182      -525.0214
   4   2.0000     -14.706910      -400.1954
   5   2.0000     -14.602357      -397.3503
   6   2.0000     -14.565293      -396.3418
   7   2.0000     -10.556434      -287.2552
   8   2.0000     -10.522974      -286.3447
   9   2.0000     -10.509799      -285.9862
  10   2.0000     -10.501643      -285.7642
  11   2.0000     -10.460172      -284.6358
  12   2.0000     -10.428816      -283.7825
  13   2.0000      -1.367740       -37.2181
  14   2.0000      -1.341314       -36.4990
  15   2.0000      -1.314020       -35.7563
  16   2.0000      -1.304585       -35.4996
  17   2.0000      -1.247177       -33.9374
  18   2.0000      -1.230434       -33.4818
  19   2.0000      -1.191323       -32.4175
  20   2.0000      -1.069736       -29.1090
  21   2.0000      -1.020017       -27.7561
  22   2.0000      -0.973276       -26.4842
  23   2.0000      -0.894804       -24.3489
  24   2.0000      -0.889416       -24.2022
  25   2.0000      -0.878483       -23.9047
  26   2.0000      -0.853613       -23.2280
  27   2.0000      -0.831701       -22.6317
  28   2.0000      -0.815094       -22.1798
  29   2.0000      -0.779163       -21.2021
  30   2.0000      -0.761742       -20.7281
  31   2.0000      -0.757461       -20.6116
  32   2.0000      -0.731209       -19.8972
  33   2.0000      -0.728853       -19.8331
  34   2.0000      -0.716360       -19.4932
  35   2.0000      -0.703497       -19.1431
  36   2.0000      -0.682735       -18.5782
  37   2.0000      -0.680183       -18.5087
  38   2.0000      -0.670553       -18.2467
  39   2.0000      -0.659425       -17.9439
  40   2.0000      -0.640919       -17.4403
  41   2.0000      -0.623298       -16.9608
  42   2.0000      -0.606642       -16.5076
  43   2.0000      -0.602971       -16.4077
  44   2.0000      -0.564420       -15.3587
  45   2.0000      -0.535653       -14.5759
  46   2.0000      -0.525877       -14.3098
  47   2.0000      -0.516863       -14.0646
  48   2.0000      -0.504821       -13.7369
  49   2.0000      -0.468559       -12.7501
  50   0.0000      -0.087458        -2.3799
  51   0.0000      -0.068586        -1.8663
  52   0.0000      -0.030691        -0.8351
  53   0.0000      -0.028135        -0.7656
  54   0.0000      -0.018068        -0.4917

MULLIKEN ATOMIC CHARGES
-----------------------
   0 N :   -0.206010
   1 H :    0.184036
   2 C :   -0.066760
   3 C :    0.288213
   4 H :    0.141751
   5 H :    0.133871
   6 O :   -0.278767
   7 C :    0.302916
   8 C :   -0.110983
   9 O :   -0.387541
  10 N :   -0.173134
  11 H :    0.145565
  12 H :    0.143426
  13 H :    0.193962
  14 C :    0.267284
  15 C :   -0.158805
  16 O :   -0.365471
  17 H :    0.171122
  18 H :    0.171095
  19 O :   -0.282520
  20 H :    0.234298
  21 N :   -0.054756
  22 H :    0.236927
  23 H :    0.233271
  24 H :    0.237009
Sum of atomic charges:    1.0000000

LOEWDIN ATOMIC CHARGES
----------------------
   0 N :    0.332963
   1 H :   -0.014655
   2 C :   -0.030944
   3 C :   -0.437024
   4 H :    0.045513
   5 H :    0.040199
   6 O :    0.137799
   7 C :   -0.380708
   8 C :   -0.011826
   9 O :    0.094700
  10 N :    0.357433
  11 H :    0.035091
  12 H :    0.035692
  13 H :   -0.017536
  14 C :   -0.381465
  15 C :    0.045249
  16 O :    0.121645
  17 H :    0.037786
  18 H :    0.037763
  19 O :    0.347838
  20 H :   -0.083943
  21 N :    0.600049
  22 H :    0.046771
  23 H :   -0.005271
  24 H :    0.046878

  Mayer bond orders larger than 0.100000
B(  0-N ,  1-H ) :   0.9671 B(  0-N ,  2-C ) :   0.8919 B(  0-N ,  7-C ) :   1.3032
B(  2-C ,  3-C ) :   0.9321 B(  2-C ,  4-H ) :   0.9751 B(  2-C ,  5-H ) :   0.9768
B(  3-C ,  6-O ) :   2.1487 B(  3-C , 19-O ) :   1.2031 B(  7-C ,  8-C ) :   0.9261
B(  7-C ,  9-O ) :   1.9272 B(  8-C , 10-N ) :   0.8927 B(  8-C , 11-H ) :   0.9907
B(  8-C , 12-H ) :   0.9777 B( 10-N , 13-H ) :   0.9076 B( 10-N , 14-C ) :   1.4110
B( 14-C , 15-C ) :   0.9098 B( 14-C , 16-O ) :   1.8445 B( 15-C , 17-H ) :   0.9858
B( 15-C , 18-H ) :   0.9859 B( 15-C , 21-N ) :   0.8983 B( 16-O , 23-H ) :   0.2035
B( 19-O , 20-H ) :   0.9537 B( 21-N , 22-H ) :   0.9404 B( 21-N , 23-H ) :   0.8139
B( 21-N , 24-H ) :   0.9404

Dispersion correction           -0.040366703
FINAL SINGLE POINT ENERGY      -701.342315724406

DIPOLE MOMENT
-------------
                                X             Y             Z
Electronic contribution:     -6.25598       1.44744      -1.90745
Nuclear contribution   :     12.86289      -2.90613       2.49303
                        -----------------------------------------
Total Dipole Moment    :      6.60691      -1.45869       0.58559
                        -----------------------------------------
Magnitude (a.u.)       :      6.79132
Magnitude (Debye)      :     17.26215

Dispersion correction in the Hessian             ... done   (      0.6 sec)

VIBRATIONAL FREQUENCIES
-----------------------

Scaling factor for frequencies =  1.000000000  (already applied!)

   0:         0.00 cm**-1
   1:         0.00 cm**-1
   2:         0.00 cm**-1
   3:         0.00 cm**-1
   4:         0.00 cm**-1
   5:         0.00 cm**-1
   6:        22.06 cm**-1
   7:        26.60 cm**-1
   8:        43.74 cm**-1
   9:        63.01 cm**-1
  10:        74.81 cm**-1
  11:        91.59 cm**-1
  12:        97.44 cm**-1
  13:       182.35 cm**-1
  14:       225.00 cm**-1
  15:       266.81 cm**-1
  16:       292.41 cm**-1
  17:       313.70 cm**-1
  18:       330.11 cm**-1
  19:       401.54 cm**-1
  20:       481.36 cm**-1
  21:       494.25 cm**-1
  22:       510.90 cm**-1
  23:       563.56 cm**-1
  24:       574.12 cm**-1
  25:       597.87 cm**-1
  26:       641.84 cm**-1
  27:       673.53 cm**-1
  28:       699.27 cm**-1
  29:       732.75 cm**-1
  30:       746.15 cm**-1
  31:       864.99 cm**-1
  32:       891.45 cm**-1
  33:       931.73 cm**-1
  34:       975.38 cm**-1
  35:      1018.90 cm**-1
  36:      1028.94 cm**-1
  37:      1059.38 cm**-1
  38:      1098.41 cm**-1
  39:      1114.33 cm**-1
  40:      1116.84 cm**-1
  41:      1158.52 cm**-1
  42:      1200.96 cm**-1
  43:      1255.13 cm**-1
  44:      1257.58 cm**-1
  45:      1280.93 cm**-1
  46:      1309.52 cm**-1
  47:      1321.89 cm**-1
  48:      1353.14 cm**-1
  49:      1376.45 cm**-1
  50:      1399.51 cm**-1
  51:      1412.50 cm**-1
  52:      1428.21 cm**-1
  53:      1462.02 cm**-1
  54:      1501.01 cm**-1
  55:      1505.79 cm**-1
  56:      1585.20 cm**-1
  57:      1601.09 cm**-1
  58:      1650.68 cm**-1
  59:      1666.71 cm**-1
  60:      1783.98 cm**-1
  61:      1795.29 cm**-1
  62:      1878.38 cm**-1
  63:      2825.92 cm**-1
  64:      3090.21 cm**-1
  65:      3123.75 cm**-1
  66:      3134.03 cm**-1
  67:      3136.53 cm**-1
  68:      3178.46 cm**-1
  69:      3195.46 cm**-1
  70:      3503.79 cm**-1
  71:      3516.64 cm**-1
  72:      3578.10 cm**-1
  73:      3675.44 cm**-1
  74:      3802.33 cm**-1

IR SPECTRUM
-----------

 Mode   freq       eps      Int      T**2         TX        TY        TZ
       cm**-1   L/(mol*cm) km/mol    a.u.
----------------------------------------------------------------------------
  6:     22.06   0.000657    3.32  0.009293  ( 0.044944 -0.020070  0.082887)
  7:     26.60   0.000243    1.23  0.002854  (-0.046667  0.024688  0.008157)
  8:     43.74   0.000399    2.02  0.002846  ( 0.014573 -0.029198 -0.042209)
  9:     63.01   0.000723    3.65  0.003579  (-0.011138 -0.006713  0.058391)
 10:     74.81   0.000660    3.34  0.002754  (-0.001457  0.007355 -0.051937)
 11:     91.59   0.003601   18.20  0.012269  ( 0.095755  0.041881 -0.036682)
 12:     97.44   0.003868   19.55  0.012389  (-0.030155  0.001553 -0.107132)
 13:    182.35   0.001961    9.91  0.003355  ( 0.003473 -0.004909  0.057610)
 14:    225.00   0.000685    3.46  0.000951  ( 0.026104 -0.016378 -0.001003)
 15:    266.81   0.002184   11.04  0.002555  (-0.049634  0.007717 -0.005627)
 16:    292.41   0.000757    3.82  0.000808  ( 0.024957 -0.011335 -0.007498)
 17:    313.70   0.000020    0.10  0.000020  ( 0.000536 -0.000801  0.004360)
 18:    330.11   0.021561  108.96  0.020382  (-0.122592  0.072036  0.012822)
 19:    401.54   0.025933  131.05  0.020154  ( 0.114575 -0.083692  0.004724)
 20:    481.36   0.012350   62.41  0.008006  (-0.008363  0.035325  0.081783)
 21:    494.25   0.003488   17.63  0.002202  (-0.014188  0.005083 -0.044442)
 22:    510.90   0.003474   17.56  0.002122  (-0.001104 -0.045730 -0.005424)
 23:    563.56   0.004577   23.13  0.002535  ( 0.004880 -0.000360 -0.050108)
 24:    574.12   0.006190   31.28  0.003365  ( 0.030609 -0.004934  0.049026)
 25:    597.87   0.003602   18.20  0.001880  (-0.020234  0.009190  0.037231)
 26:    641.84   0.013422   67.83  0.006526  ( 0.055913 -0.026057 -0.052158)
 27:    673.53   0.016545   83.61  0.007666  (-0.028659  0.081003 -0.016816)
 28:    699.27   0.000960    4.85  0.000428  (-0.004114 -0.020222  0.001583)
 29:    732.75   0.010436   52.74  0.004444  ( 0.002868  0.006148 -0.066320)
 30:    746.15   0.000531    2.69  0.000222  ( 0.004763  0.013909 -0.002469)
 31:    864.99   0.002869   14.50  0.001035  ( 0.029986  0.006434 -0.009717)
 32:    891.45   0.001554    7.85  0.000544  (-0.008513  0.021710 -0.000314)
 33:    931.73   0.002188   11.06  0.000733  (-0.000351 -0.003425  0.026850)
 34:    975.38   0.015628   78.98  0.005000  ( 0.063068 -0.031974 -0.000253)
 35:   1018.90   0.000253    1.28  0.000078  (-0.004958  0.001894 -0.007026)
 36:   1028.94   0.000979    4.94  0.000297  ( 0.011966 -0.012388  0.000355)
 37:   1059.38   0.006348   32.08  0.001870  ( 0.034904 -0.024910 -0.005573)
 38:   1098.41   0.001881    9.51  0.000534  (-0.006353  0.020875  0.007637)
 39:   1114.33   0.000230    1.16  0.000065  ( 0.000526  0.000700 -0.007985)
 40:   1116.84   0.025948  131.13  0.007250  ( 0.058052 -0.062198 -0.003432)
 41:   1158.52   0.000321    1.62  0.000086  (-0.005906 -0.001927 -0.006916)
 42:   1200.96   0.038382  193.97  0.009973  ( 0.039385  0.037151 -0.083917)
 43:   1255.13   0.000993    5.02  0.000247  ( 0.011957  0.009805 -0.002797)
 44:   1257.58   0.000346    1.75  0.000086  (-0.004429  0.002882  0.007617)
 45:   1280.93   0.019272   97.39  0.004695  ( 0.068026  0.004600  0.006815)
 46:   1309.52   0.015409   77.87  0.003672  (-0.060128  0.006617 -0.003605)
 47:   1321.89   0.000735    3.72  0.000174  (-0.000454  0.001784 -0.013048)
 48:   1353.14   0.000313    1.58  0.000072  ( 0.000995  0.004889 -0.006874)
 49:   1376.45   0.004748   24.00  0.001077  ( 0.005777 -0.010512  0.030540)
 50:   1399.51   0.013648   68.97  0.003043  (-0.040519 -0.012315  0.035353)
 51:   1412.50   0.004812   24.32  0.001063  (-0.032146 -0.004037 -0.003654)
 52:   1428.21   0.097437  492.41  0.021290  ( 0.145375  0.010968  0.005980)
 53:   1462.02   0.001612    8.14  0.000344  (-0.003132  0.012278 -0.013543)
 54:   1501.01   0.016602   83.90  0.003452  ( 0.049401 -0.031677 -0.002755)
 55:   1505.79   0.003116   15.75  0.000646  ( 0.021440  0.013390  0.002621)
 56:   1585.20   0.116635  589.42  0.022961  (-0.130537  0.076782  0.005036)
 57:   1601.09   0.007724   39.03  0.001505  (-0.038738 -0.000018 -0.002198)
 58:   1650.68   0.004741   23.96  0.000896  ( 0.017880 -0.023901 -0.002301)
 59:   1666.71   0.006000   30.32  0.001123  (-0.001098 -0.003867  0.033275)
 60:   1783.98   0.055466  280.30  0.009702  ( 0.046107  0.086235  0.011840)
 61:   1795.29   0.061297  309.77  0.010655  (-0.099957  0.025750 -0.000507)
 62:   1878.38   0.067234  339.77  0.011170  (-0.099513 -0.033518 -0.011980)
 63:   2825.92   0.094616  478.15  0.010448  (-0.055636  0.085246  0.009285)
 64:   3090.21   0.001924    9.72  0.000194  (-0.011499  0.007878  0.000038)
 65:   3123.75   0.001069    5.40  0.000107  (-0.009416  0.003357 -0.002619)
 66:   3134.03   0.000884    4.46  0.000088  (-0.005781  0.007347  0.000754)
 67:   3136.53   0.000121    0.61  0.000012  (-0.000453  0.000090  0.003436)
 68:   3178.46   0.000103    0.52  0.000010  (-0.000914  0.003003 -0.000468)
 69:   3195.46   0.000301    1.52  0.000029  (-0.000105 -0.000713  0.005372)
 70:   3503.79   0.056766  286.87  0.005056  ( 0.068975  0.016730  0.004288)
 71:   3516.64   0.018831   95.17  0.001671  (-0.032999  0.024045  0.001996)
 72:   3578.10   0.020482  103.51  0.001786  (-0.001088 -0.005314  0.041916)
 73:   3675.44   0.011438   57.80  0.000971  ( 0.002325 -0.030983 -0.002407)
 74:   3802.33   0.020930  105.77  0.001718  ( 0.007307 -0.001670  0.040762)

--------------------------
THERMOCHEMISTRY AT 298.15K
--------------------------

Temperature         ... 298.15 K
Pressure            ... 1.00 atm
Total Mass          ... 190.18 AMU

Throughout the following assumptions are being made:
  (1) The electronic state is orbitally nondegenerate
  (2) There are no thermally accessible electronically excited states
  (3) Hindered rotations indicated by low frequency modes are not
      treated as such but are treated as vibrations and this may
      cause some error
  (4) All equations used are the standard statistical mechanics
      equations for an ideal gas
  (5) All vibrations are strictly harmonic

freq.      22.06  E(vib)   ...       0.56
freq.      26.60  E(vib)   ...       0.56
freq.      43.74  E(vib)   ...       0.53
freq.      63.01  E(vib)   ...       0.51
freq.      74.81  E(vib)   ...       0.49
freq.      91.59  E(vib)   ...       0.47
freq.      97.44  E(vib)   ...       0.46
freq.     182.35  E(vib)   ...       0.37
freq.     225.00  E(vib)   ...       0.33
freq.     266.81  E(vib)   ...       0.29
freq.     292.41  E(vib)   ...       0.27
freq.     313.70  E(vib)   ...       0.25
freq.     330.11  E(vib)   ...       0.24
freq.     401.54  E(vib)   ...       0.19
freq.     481.36  E(vib)   ...       0.15
freq.     494.25  E(vib)   ...       0.14
freq.     510.90  E(vib)   ...       0.14
freq.     563.56  E(vib)   ...       0.11
freq.     574.12  E(vib)   ...       0.11
freq.     597.87  E(vib)   ...       0.10
freq.     641.84  E(vib)   ...       0.09
freq.     673.53  E(vib)   ...       0.08
freq.     699.27  E(vib)   ...       0.07
freq.     732.75  E(vib)   ...       0.06
freq.     746.15  E(vib)   ...       0.06
freq.     864.99  E(vib)   ...       0.04
freq.     891.45  E(vib)   ...       0.03
freq.     931.73  E(vib)   ...       0.03
freq.     975.38  E(vib)   ...       0.03
freq.    1018.90  E(vib)   ...       0.02
freq.    1028.94  E(vib)   ...       0.02
freq.    1059.38  E(vib)   ...       0.02
freq.    1098.41  E(vib)   ...       0.02
freq.    1114.33  E(vib)   ...       0.01
freq.    1116.84  E(vib)   ...       0.01
freq.    1158.52  E(vib)   ...       0.01
freq.    1200.96  E(vib)   ...       0.01
freq.    1255.13  E(vib)   ...       0.01
freq.    1257.58  E(vib)   ...       0.01
freq.    1280.93  E(vib)   ...       0.01
freq.    1309.52  E(vib)   ...       0.01
freq.    1321.89  E(vib)   ...       0.01
freq.    1353.14  E(vib)   ...       0.01
freq.    1376.45  E(vib)   ...       0.01
freq.    1399.51  E(vib)   ...       0.00
freq.    1412.50  E(vib)   ...       0.00
freq.    1428.21  E(vib)   ...       0.00
freq.    1462.02  E(vib)   ...       0.00
freq.    1501.01  E(vib)   ...       0.00
freq.    1505.79  E(vib)   ...       0.00
freq.    1585.20  E(vib)   ...       0.00
freq.    1601.09  E(vib)   ...       0.00
freq.    1650.68  E(vib)   ...       0.00
freq.    1666.71  E(vib)   ...       0.00
freq.    1783.98  E(vib)   ...       0.00
freq.    1795.29  E(vib)   ...       0.00
freq.    1878.38  E(vib)   ...       0.00
freq.    2825.92  E(vib)   ...       0.00
freq.    3090.21  E(vib)   ...       0.00
freq.    3123.75  E(vib)   ...       0.00
freq.    3134.03  E(vib)   ...       0.00
freq.    3136.53  E(vib)   ...       0.00
freq.    3178.46  E(vib)   ...       0.00
freq.    3195.46  E(vib)   ...       0.00
freq.    3503.79  E(vib)   ...       0.00
freq.    3516.64  E(vib)   ...       0.00
freq.    3578.10  E(vib)   ...       0.00
freq.    3675.44  E(vib)   ...       0.00
freq.    3802.33  E(vib)   ...       0.00

------------
INNER ENERGY
------------

The inner energy is: U= E(el) + E(ZPE) + E(vib) + E(rot) + E(trans)
    E(el)   - is the total energy from the electronic structure calculation
              = E(kin-el) + E(nuc-el) + E(el-el) + E(nuc-nuc)
    E(ZPE)  - the the zero temperature vibrational energy from the frequency calculation
    E(vib)  - the the finite temperature correction to E(ZPE) due to population
              of excited vibrational states
    E(rot)  - is the rotational thermal energy
    E(trans)- is the translational thermal energy

Summary of contributions to the inner energy U:
Electronic energy                ...   -701.34231572 Eh
Zero point energy                ...      0.20775128 Eh     130.37 kcal/mol
Thermal vibrational correction   ...      0.01112048 Eh       6.98 kcal/mol
Thermal rotational correction    ...      0.00141627 Eh       0.89 kcal/mol
Thermal translational correction ...      0.00141627 Eh       0.89 kcal/mol
-----------------------------------------------------------------------
Total thermal energy                   -701.12061142 Eh

Summary of corrections to the electronic energy:
(perhaps to be used in another calculation)
Total thermal correction                  0.01395302 Eh       8.76 kcal/mol
Non-thermal (ZPE) correction              0.20775128 Eh     130.37 kcal/mol
-----------------------------------------------------------------------
Total correction                          0.22170431 Eh     139.12 kcal/mol

--------
ENTHALPY
--------

The enthalpy is H = U + kB*T
                kB is Boltzmann's constant
Total free energy                 ...   -701.12061142 Eh
Thermal Enthalpy correction       ...      0.00094421 Eh       0.59 kcal/mol
-----------------------------------------------------------------------
Total Enthalpy                    ...   -701.11966721 Eh

Note: Only C1 symmetry has been detected, increase convergence thresholds
      if your molecule has a higher symmetry. Symmetry factor of 1.0 is
      used for the rotational entropy correction.

Note: Rotational entropy computed according to Herzberg
Infrared and Raman Spectra, Chapter V,1, Van Nostrand Reinhold, 1945
Point Group:  C1, Symmetry Number:   1
Rotational constants in cm-1:     0.084580     0.008510     0.008379

Vibrational entropy computed according to the QRRHO of S. Grimme
Chem.Eur.J. 2012 18 9955

-------
ENTROPY
-------

The entropy contributions are T*S = T*(S(el)+S(vib)+S(rot)+S(trans))
     S(el)   - electronic entropy
     S(vib)  - vibrational entropy
     S(rot)  - rotational entropy
     S(trans)- translational entropy
The entropies will be listed as multiplied by the temperature to get
units of energy

Electronic entropy                ...      0.00000000 Eh      0.00 kcal/mol
Vibrational entropy               ...      0.02031425 Eh     12.75 kcal/mol
Rotational entropy                ...      0.01518463 Eh      9.53 kcal/mol
Translational entropy             ...      0.01978162 Eh     12.41 kcal/mol
-----------------------------------------------------------------------

                             ****ORCA TERMINATED NORMALLY****
TOTAL RUN TIME: 0 days 2 hours 17 minutes 37 seconds 24 msec
