                         Program Version 5.0.2 -  RELEASE  -
|  1> # GGG-H_tt_029 (old 183)
|  2> ! wB97X-D3BJ Opt Freq def2-TZVPP def2/J RIJCOSX VeryTightSCF
|  3> ! PAL8 defgrid3 VeryTightOpt
|  4>
|  5> %maxcore 4096
|  6>
|  7> %geom
|  8>   MaxIter 300
|  9>   # MaxStep 0.1
| 10>   Calc_Hess true
| 11>   Recalc_Hess 10
| 12> end
| 13>
| 14> %chelpg
| 15>   grid 0.1
| 16>   rmax 3.0
| 17> end
| 18>
| 19> * xyz 1 1
| 20>  N   +0.604597   +1.924960   +2.313915
| 21>  H   +1.258015   +2.274160   +1.612187
| 22>  C   +1.002499   +1.832391   +3.703266
| 23>  C   +1.115793   +0.408486   +4.240040
| 24>  H   +1.979908   +2.328686   +3.828435
| 25>  H   +0.280471   +2.334824   +4.367326
| 26>  O   +0.892011   +0.065215   +5.366192
| 27>  C   -0.560622   +1.327386   +1.910864
| 28>  C   -0.730956   +1.224361   +0.380266
| 29>  O   -1.324266   +0.777752   +2.694803
| 30>  N   +0.000000   +0.000000   +0.000000
| 31>  H   -0.304768   +2.077093   -0.168953
| 32>  H   -1.792457   +1.101767   +0.131068
| 33>  H   -0.492065   -0.884927   +0.129442
| 34>  C   +1.343116   +0.000000   +0.000000
| 35>  C   +2.075815   -1.348215   +0.125824
| 36>  O   +2.052962   +1.017998   +0.000000
| 37>  H   +2.483909   -1.680245   -0.842189
| 38>  H   +1.479351   -2.151426   +0.581575
| 39>  O   +1.576786   -0.540715   +3.298373
| 40>  H   +1.506892   -1.381673   +3.805919
| 41>  N   +3.218777   -0.990993   +1.033598
| 42>  H   +3.991927   -1.671103   +1.044006
| 43>  H   +3.530185   -0.051248   +0.683339
| 44>  H   +2.838468   -0.823800   +2.003861
| 45> *
| 46>
| 47>                          ****END OF INPUT****
 Total Charge           Charge          ....    1
 Multiplicity           Mult            ....    1
 Number of Electrons    NEL             ....  100
Dispersion correction           -0.045132678
FINAL SINGLE POINT ENERGY      -701.329005404349
Dispersion correction            ... done
Dispersion correction in the Hessian             ... done   (      0.8 sec)
Dispersion correction           -0.045207901
FINAL SINGLE POINT ENERGY      -701.332843270729
Dispersion correction            ... done
Dispersion correction           -0.045079137
FINAL SINGLE POINT ENERGY      -701.332995951593
FINAL SINGLE POINT ENERGY      -701.333080039842
FINAL SINGLE POINT ENERGY      -701.333098221934
FINAL SINGLE POINT ENERGY      -701.333106347034
FINAL SINGLE POINT ENERGY      -701.333107824929
Dispersion correction           -0.044861663
FINAL SINGLE POINT ENERGY      -701.333107950602
Dispersion correction            ... done
Dispersion correction           -0.044864365
FINAL SINGLE POINT ENERGY      -701.333107908112
Dispersion correction            ... done
                    ***********************HURRAY********************

CARTESIAN COORDINATES (ANGSTROEM)
---------------------------------
  N      0.555322    1.942250    2.354725
  H      1.217947    2.315590    1.697812
  C      0.893065    1.852077    3.751344
  C      1.138219    0.445185    4.269979
  H      1.794821    2.436297    3.942490
  H      0.097090    2.254065    4.377782
  O      1.001120    0.112606    5.402969
  C     -0.568910    1.332199    1.897766
  C     -0.687323    1.241635    0.374531
  O     -1.354869    0.770197    2.631068
  N      0.024024    0.010975    0.010048
  H     -0.237576    2.081732   -0.150483
  H     -1.733192    1.144131    0.097704
  H     -0.470842   -0.853797    0.161476
  C      1.358095   -0.004765    0.016736
  C      2.054215   -1.366027    0.118894
  O      2.079461    0.984405    0.004214
  H      2.378931   -1.714125   -0.861140
  H      1.459765   -2.131038    0.613411
  O      1.593075   -0.472310    3.326846
  H      1.604053   -1.298172    3.833606
  N      3.261985   -1.064904    0.947713
  H      3.965803   -1.800342    0.929612
  H      3.638097   -0.178673    0.578835
  H      2.963973   -0.868455    1.915217

 Multiplicity           Mult            ....    1
 Number of Electrons    NEL             ....  100
 Basis Dimension        Dim             ....  571

ORBITAL ENERGIES
----------------

  NO   OCC          E(Eh)            E(eV)
   0   2.0000     -19.414698      -528.3008
   1   2.0000     -19.366012      -526.9760
   2   2.0000     -19.341422      -526.3069
   3   2.0000     -19.312452      -525.5185
   4   2.0000     -14.720510      -400.5654
   5   2.0000     -14.615868      -397.7180
   6   2.0000     -14.573029      -396.5523
   7   2.0000     -10.563425      -287.4454
   8   2.0000     -10.545654      -286.9618
   9   2.0000     -10.530091      -286.5384
  10   2.0000     -10.508576      -285.9529
  11   2.0000     -10.461259      -284.6653
  12   2.0000     -10.456052      -284.5236
  13   2.0000      -1.386331       -37.7240
  14   2.0000      -1.372110       -37.3370
  15   2.0000      -1.320496       -35.9325
  16   2.0000      -1.311473       -35.6870
  17   2.0000      -1.293433       -35.1961
  18   2.0000      -1.238963       -33.7139
  19   2.0000      -1.198661       -32.6172
  20   2.0000      -1.076172       -29.2841
  21   2.0000      -1.029259       -28.0076
  22   2.0000      -0.988865       -26.9084
  23   2.0000      -0.909555       -24.7502
  24   2.0000      -0.895700       -24.3732
  25   2.0000      -0.892792       -24.2941
  26   2.0000      -0.872980       -23.7550
  27   2.0000      -0.845154       -22.9978
  28   2.0000      -0.820737       -22.3334
  29   2.0000      -0.795896       -21.6574
  30   2.0000      -0.788117       -21.4457
  31   2.0000      -0.759755       -20.6740
  32   2.0000      -0.754472       -20.5302
  33   2.0000      -0.745579       -20.2882
  34   2.0000      -0.741807       -20.1856
  35   2.0000      -0.715741       -19.4763
  36   2.0000      -0.701662       -19.0932
  37   2.0000      -0.700377       -19.0582
  38   2.0000      -0.678198       -18.4547
  39   2.0000      -0.673599       -18.3295
  40   2.0000      -0.654920       -17.8213
  41   2.0000      -0.653659       -17.7870
  42   2.0000      -0.639495       -17.4015
  43   2.0000      -0.622527       -16.9398
  44   2.0000      -0.579172       -15.7601
  45   2.0000      -0.563736       -15.3400
  46   2.0000      -0.551929       -15.0188
  47   2.0000      -0.536826       -14.6078
  48   2.0000      -0.497596       -13.5403
  49   2.0000      -0.492098       -13.3907
  50   0.0000      -0.096704        -2.6315
  51   0.0000      -0.078788        -2.1439
  52   0.0000      -0.046804        -1.2736
  53   0.0000      -0.038063        -1.0358
  54   0.0000      -0.031540        -0.8582

MULLIKEN ATOMIC CHARGES
-----------------------
   0 N :   -0.200631
   1 H :    0.192196
   2 C :   -0.095251
   3 C :    0.307640
   4 H :    0.131156
   5 H :    0.158379
   6 O :   -0.236946
   7 C :    0.235228
   8 C :   -0.103331
   9 O :   -0.333829
  10 N :   -0.155671
  11 H :    0.149237
  12 H :    0.154196
  13 H :    0.194912
  14 C :    0.280716
  15 C :   -0.166450
  16 O :   -0.403386
  17 H :    0.180593
  18 H :    0.161756
  19 O :   -0.354030
  20 H :    0.237158
  21 N :   -0.060024
  22 H :    0.240359
  23 H :    0.240691
  24 H :    0.245330
Sum of atomic charges:    1.0000000

LOEWDIN ATOMIC CHARGES
----------------------
   0 N :    0.323620
   1 H :   -0.029437
   2 C :   -0.039746
   3 C :   -0.394301
   4 H :    0.041945
   5 H :    0.052198
   6 O :    0.178027
   7 C :   -0.399232
   8 C :   -0.003046
   9 O :    0.110075
  10 N :    0.355183
  11 H :    0.032328
  12 H :    0.039838
  13 H :   -0.003563
  14 C :   -0.401060
  15 C :    0.040877
  16 O :    0.090251
  17 H :    0.042158
  18 H :    0.032371
  19 O :    0.301569
  20 H :   -0.095174
  21 N :    0.607306
  22 H :    0.047919
  23 H :    0.043621
  24 H :    0.026272

  Mayer bond orders larger than 0.100000
B(  0-N ,  1-H ) :   0.9502 B(  0-N ,  2-C ) :   0.9424 B(  0-N ,  7-C ) :   1.2158
B(  2-C ,  3-C ) :   0.9232 B(  2-C ,  4-H ) :   0.9738 B(  2-C ,  5-H ) :   0.9852
B(  3-C ,  6-O ) :   2.1884 B(  3-C , 19-O ) :   1.0029 B(  7-C ,  8-C ) :   0.9190
B(  7-C ,  9-O ) :   2.0320 B(  8-C , 10-N ) :   0.8600 B(  8-C , 11-H ) :   0.9958
B(  8-C , 12-H ) :   0.9939 B( 10-N , 13-H ) :   0.9593 B( 10-N , 14-C ) :   1.3539
B( 14-C , 15-C ) :   0.9307 B( 14-C , 16-O ) :   1.8681 B( 15-C , 17-H ) :   0.9762
B( 15-C , 18-H ) :   0.9952 B( 15-C , 21-N ) :   0.8840 B( 19-O , 20-H ) :   0.9451
B( 21-N , 22-H ) :   0.9339 B( 21-N , 23-H ) :   0.8916 B( 21-N , 24-H ) :   0.8993

Dispersion correction           -0.044863827
FINAL SINGLE POINT ENERGY      -701.333107845925

DIPOLE MOMENT
-------------
                                X             Y             Z
Electronic contribution:     -2.26770       1.10610       3.30513
Nuclear contribution   :      5.34779      -3.33340      -5.83281
                        -----------------------------------------
Total Dipole Moment    :      3.08009      -2.22730      -2.52769
                        -----------------------------------------
Magnitude (a.u.)       :      4.56476
Magnitude (Debye)      :     11.60269

Dispersion correction in the Hessian             ... done   (      0.7 sec)

VIBRATIONAL FREQUENCIES
-----------------------

Scaling factor for frequencies =  1.000000000  (already applied!)

   0:         0.00 cm**-1
   1:         0.00 cm**-1
   2:         0.00 cm**-1
   3:         0.00 cm**-1
   4:         0.00 cm**-1
   5:         0.00 cm**-1
   6:        51.57 cm**-1
   7:        62.34 cm**-1
   8:        70.52 cm**-1
   9:        77.34 cm**-1
  10:       103.04 cm**-1
  11:       121.46 cm**-1
  12:       144.60 cm**-1
  13:       204.10 cm**-1
  14:       246.09 cm**-1
  15:       275.80 cm**-1
  16:       300.14 cm**-1
  17:       325.93 cm**-1
  18:       368.28 cm**-1
  19:       403.53 cm**-1
  20:       436.73 cm**-1
  21:       475.86 cm**-1
  22:       490.92 cm**-1
  23:       538.29 cm**-1
  24:       567.14 cm**-1
  25:       591.08 cm**-1
  26:       647.25 cm**-1
  27:       681.05 cm**-1
  28:       711.76 cm**-1
  29:       718.14 cm**-1
  30:       807.10 cm**-1
  31:       817.04 cm**-1
  32:       869.17 cm**-1
  33:       899.64 cm**-1
  34:       918.73 cm**-1
  35:       992.10 cm**-1
  36:      1016.22 cm**-1
  37:      1053.16 cm**-1
  38:      1065.64 cm**-1
  39:      1119.62 cm**-1
  40:      1129.16 cm**-1
  41:      1151.88 cm**-1
  42:      1170.63 cm**-1
  43:      1245.22 cm**-1
  44:      1302.65 cm**-1
  45:      1309.00 cm**-1
  46:      1323.52 cm**-1
  47:      1346.54 cm**-1
  48:      1367.63 cm**-1
  49:      1385.01 cm**-1
  50:      1400.24 cm**-1
  51:      1423.74 cm**-1
  52:      1464.75 cm**-1
  53:      1489.43 cm**-1
  54:      1492.23 cm**-1
  55:      1504.27 cm**-1
  56:      1574.53 cm**-1
  57:      1595.35 cm**-1
  58:      1617.83 cm**-1
  59:      1696.17 cm**-1
  60:      1776.18 cm**-1
  61:      1805.61 cm**-1
  62:      1909.98 cm**-1
  63:      3111.00 cm**-1
  64:      3126.33 cm**-1
  65:      3139.48 cm**-1
  66:      3164.02 cm**-1
  67:      3194.79 cm**-1
  68:      3208.32 cm**-1
  69:      3315.41 cm**-1
  70:      3361.55 cm**-1
  71:      3548.23 cm**-1
  72:      3652.75 cm**-1
  73:      3682.73 cm**-1
  74:      3762.07 cm**-1

IR SPECTRUM
-----------

 Mode   freq       eps      Int      T**2         TX        TY        TZ
       cm**-1   L/(mol*cm) km/mol    a.u.
----------------------------------------------------------------------------
  6:     51.57   0.000476    2.41  0.002882  (-0.018718 -0.047997 -0.015106)
  7:     62.34   0.001899    9.59  0.009504  ( 0.074549 -0.045051 -0.043781)
  8:     70.52   0.000989    5.00  0.004376  (-0.002687  0.024827 -0.061259)
  9:     77.34   0.000935    4.73  0.003774  (-0.058105  0.016370  0.011417)
 10:    103.04   0.009932   50.19  0.030080  (-0.043993  0.101683  0.133438)
 11:    121.46   0.000653    3.30  0.001679  ( 0.026325  0.016251 -0.026862)
 12:    144.60   0.004143   20.94  0.008941  ( 0.020378  0.001277 -0.092328)
 13:    204.10   0.000565    2.86  0.000864  (-0.004204  0.011784 -0.026605)
 14:    246.09   0.000897    4.53  0.001137  (-0.010781 -0.018973 -0.025704)
 15:    275.80   0.000724    3.66  0.000819  ( 0.008226 -0.027352  0.001915)
 16:    300.14   0.006739   34.06  0.007007  ( 0.077641 -0.028365  0.013211)
 17:    325.93   0.002887   14.59  0.002764  ( 0.028954 -0.042501 -0.010937)
 18:    368.28   0.005099   25.77  0.004321  ( 0.041407 -0.044111  0.025703)
 19:    403.53   0.008189   41.39  0.006333  (-0.064937  0.043823 -0.013999)
 20:    436.73   0.003494   17.66  0.002497  ( 0.000041 -0.049968  0.000142)
 21:    475.86   0.004022   20.33  0.002638  ( 0.025074 -0.029614 -0.033647)
 22:    490.92   0.015697   79.33  0.009978  ( 0.005790 -0.098901 -0.012781)
 23:    538.29   0.005580   28.20  0.003235  (-0.044411  0.011970 -0.033453)
 24:    567.14   0.015883   80.27  0.008740  ( 0.036516  0.026010  0.082035)
 25:    591.08   0.011450   57.86  0.006045  ( 0.033717  0.064077  0.028328)
 26:    647.25   0.009054   45.75  0.004365  ( 0.039751  0.014420  0.050765)
 27:    681.05   0.004996   25.25  0.002289  ( 0.043936 -0.017796 -0.006483)
 28:    711.76   0.001351    6.83  0.000592  ( 0.021334 -0.000241 -0.011717)
 29:    718.14   0.006559   33.15  0.002850  (-0.049124  0.014970 -0.014599)
 30:    807.10   0.010926   55.22  0.004224  (-0.022783  0.035130  0.049712)
 31:    817.04   0.004982   25.17  0.001903  (-0.013424  0.021452  0.035529)
 32:    869.17   0.002800   14.15  0.001005  (-0.029877  0.003330 -0.010078)
 33:    899.64   0.002006   10.14  0.000696  (-0.002891 -0.017123 -0.019854)
 34:    918.73   0.004856   24.54  0.001649  ( 0.006762  0.000078 -0.040045)
 35:    992.10   0.001083    5.48  0.000341  ( 0.010538 -0.004890  0.014347)
 36:   1016.22   0.000810    4.09  0.000249  (-0.003417  0.014605 -0.004876)
 37:   1053.16   0.002721   13.75  0.000806  ( 0.007267 -0.023956 -0.013398)
 38:   1065.64   0.000990    5.00  0.000290  (-0.003837  0.014275 -0.008445)
 39:   1119.62   0.001560    7.88  0.000435  ( 0.012608  0.001292 -0.016560)
 40:   1129.16   0.006942   35.08  0.001919  ( 0.022617 -0.032964 -0.017901)
 41:   1151.88   0.010773   54.44  0.002919  (-0.024517  0.045698  0.015143)
 42:   1170.63   0.037557  189.80  0.010012  ( 0.043407 -0.064888 -0.062589)
 43:   1245.22   0.007502   37.91  0.001880  ( 0.025571  0.015537  0.031382)
 44:   1302.65   0.011784   59.55  0.002823  ( 0.036971 -0.038103 -0.002068)
 45:   1309.00   0.000847    4.28  0.000202  (-0.003599  0.009799 -0.009638)
 46:   1323.52   0.009212   46.56  0.002172  (-0.005400  0.017176  0.042988)
 47:   1346.54   0.002271   11.48  0.000526  (-0.008970  0.004360  0.020659)
 48:   1367.63   0.000329    1.66  0.000075  (-0.005523  0.006118  0.002664)
 49:   1385.01   0.002886   14.59  0.000650  (-0.004405  0.013569  0.021137)
 50:   1400.24   0.004515   22.82  0.001006  ( 0.009331  0.013283  0.027253)
 51:   1423.74   0.001110    5.61  0.000243  (-0.002128  0.015379  0.001506)
 52:   1464.75   0.001187    6.00  0.000253  ( 0.003751 -0.015365 -0.001672)
 53:   1489.43   0.006964   35.19  0.001459  ( 0.027941  0.017329 -0.019443)
 54:   1492.23   0.009732   49.18  0.002035  ( 0.032437  0.023566  0.020682)
 55:   1504.27   0.034261  173.14  0.007108  (-0.083284  0.006893 -0.011126)
 56:   1574.53   0.031116  157.25  0.006167  ( 0.036009  0.041712  0.055950)
 57:   1595.35   0.039230  198.25  0.007674  ( 0.082040 -0.028787  0.010698)
 58:   1617.83   0.005294   26.75  0.001021  ( 0.019969  0.010787 -0.022496)
 59:   1696.17   0.010893   55.05  0.002004  (-0.032972  0.029116  0.008315)
 60:   1776.18   0.030011  151.66  0.005273  (-0.061942 -0.037841  0.002000)
 61:   1805.61   0.061782  312.22  0.010678  ( 0.090334  0.038110 -0.032637)
 62:   1909.98   0.063744  322.14  0.010415  ( 0.015440  0.011718 -0.100196)
 63:   3111.00   0.000812    4.10  0.000081  ( 0.006310 -0.001750  0.006208)
 64:   3126.33   0.000171    0.87  0.000017  ( 0.003708 -0.001261 -0.001333)
 65:   3139.48   0.000309    1.56  0.000031  (-0.003133  0.004555 -0.000420)
 66:   3164.02   0.000110    0.56  0.000011  ( 0.002927  0.001330  0.000716)
 67:   3194.79   0.000050    0.25  0.000005  ( 0.000567  0.001899  0.000994)
 68:   3208.32   0.000006    0.03  0.000001  ( 0.000670  0.000001  0.000317)
 69:   3315.41   0.052984  267.76  0.004987  (-0.018867  0.030592  0.060789)
 70:   3361.55   0.036954  186.75  0.003431  (-0.018774 -0.026994  0.048471)
 71:   3548.23   0.029264  147.89  0.002574  (-0.034536  0.036177  0.008498)
 72:   3652.75   0.013070   66.05  0.001117  (-0.025047 -0.022116  0.000378)
 73:   3682.73   0.013643   68.95  0.001156  (-0.024433 -0.012130  0.020297)
 74:   3762.07   0.017348   87.67  0.001439  ( 0.003345 -0.034957  0.014349)

--------------------------
THERMOCHEMISTRY AT 298.15K
--------------------------

Temperature         ... 298.15 K
Pressure            ... 1.00 atm
Total Mass          ... 190.18 AMU

Throughout the following assumptions are being made:
  (1) The electronic state is orbitally nondegenerate
  (2) There are no thermally accessible electronically excited states
  (3) Hindered rotations indicated by low frequency modes are not
      treated as such but are treated as vibrations and this may
      cause some error
  (4) All equations used are the standard statistical mechanics
      equations for an ideal gas
  (5) All vibrations are strictly harmonic

freq.      51.57  E(vib)   ...       0.52
freq.      62.34  E(vib)   ...       0.51
freq.      70.52  E(vib)   ...       0.50
freq.      77.34  E(vib)   ...       0.49
freq.     103.04  E(vib)   ...       0.46
freq.     121.46  E(vib)   ...       0.44
freq.     144.60  E(vib)   ...       0.41
freq.     204.10  E(vib)   ...       0.35
freq.     246.09  E(vib)   ...       0.31
freq.     275.80  E(vib)   ...       0.28
freq.     300.14  E(vib)   ...       0.26
freq.     325.93  E(vib)   ...       0.24
freq.     368.28  E(vib)   ...       0.21
freq.     403.53  E(vib)   ...       0.19
freq.     436.73  E(vib)   ...       0.17
freq.     475.86  E(vib)   ...       0.15
freq.     490.92  E(vib)   ...       0.14
freq.     538.29  E(vib)   ...       0.12
freq.     567.14  E(vib)   ...       0.11
freq.     591.08  E(vib)   ...       0.10
freq.     647.25  E(vib)   ...       0.09
freq.     681.05  E(vib)   ...       0.08
freq.     711.76  E(vib)   ...       0.07
freq.     718.14  E(vib)   ...       0.07
freq.     807.10  E(vib)   ...       0.05
freq.     817.04  E(vib)   ...       0.05
freq.     869.17  E(vib)   ...       0.04
freq.     899.64  E(vib)   ...       0.03
freq.     918.73  E(vib)   ...       0.03
freq.     992.10  E(vib)   ...       0.02
freq.    1016.22  E(vib)   ...       0.02
freq.    1053.16  E(vib)   ...       0.02
freq.    1065.64  E(vib)   ...       0.02
freq.    1119.62  E(vib)   ...       0.01
freq.    1129.16  E(vib)   ...       0.01
freq.    1151.88  E(vib)   ...       0.01
freq.    1170.63  E(vib)   ...       0.01
freq.    1245.22  E(vib)   ...       0.01
freq.    1302.65  E(vib)   ...       0.01
freq.    1309.00  E(vib)   ...       0.01
freq.    1323.52  E(vib)   ...       0.01
freq.    1346.54  E(vib)   ...       0.01
freq.    1367.63  E(vib)   ...       0.01
freq.    1385.01  E(vib)   ...       0.00
freq.    1400.24  E(vib)   ...       0.00
freq.    1423.74  E(vib)   ...       0.00
freq.    1464.75  E(vib)   ...       0.00
freq.    1489.43  E(vib)   ...       0.00
freq.    1492.23  E(vib)   ...       0.00
freq.    1504.27  E(vib)   ...       0.00
freq.    1574.53  E(vib)   ...       0.00
freq.    1595.35  E(vib)   ...       0.00
freq.    1617.83  E(vib)   ...       0.00
freq.    1696.17  E(vib)   ...       0.00
freq.    1776.18  E(vib)   ...       0.00
freq.    1805.61  E(vib)   ...       0.00
freq.    1909.98  E(vib)   ...       0.00
freq.    3111.00  E(vib)   ...       0.00
freq.    3126.33  E(vib)   ...       0.00
freq.    3139.48  E(vib)   ...       0.00
freq.    3164.02  E(vib)   ...       0.00
freq.    3194.79  E(vib)   ...       0.00
freq.    3208.32  E(vib)   ...       0.00
freq.    3315.41  E(vib)   ...       0.00
freq.    3361.55  E(vib)   ...       0.00
freq.    3548.23  E(vib)   ...       0.00
freq.    3652.75  E(vib)   ...       0.00
freq.    3682.73  E(vib)   ...       0.00
freq.    3762.07  E(vib)   ...       0.00

------------
INNER ENERGY
------------

The inner energy is: U= E(el) + E(ZPE) + E(vib) + E(rot) + E(trans)
    E(el)   - is the total energy from the electronic structure calculation
              = E(kin-el) + E(nuc-el) + E(el-el) + E(nuc-nuc)
    E(ZPE)  - the the zero temperature vibrational energy from the frequency calculation
    E(vib)  - the the finite temperature correction to E(ZPE) due to population
              of excited vibrational states
    E(rot)  - is the rotational thermal energy
    E(trans)- is the translational thermal energy

Summary of contributions to the inner energy U:
Electronic energy                ...   -701.33310785 Eh
Zero point energy                ...      0.20940829 Eh     131.41 kcal/mol
Thermal vibrational correction   ...      0.01065541 Eh       6.69 kcal/mol
Thermal rotational correction    ...      0.00141627 Eh       0.89 kcal/mol
Thermal translational correction ...      0.00141627 Eh       0.89 kcal/mol
-----------------------------------------------------------------------
Total thermal energy                   -701.11021161 Eh

Summary of corrections to the electronic energy:
(perhaps to be used in another calculation)
Total thermal correction                  0.01348795 Eh       8.46 kcal/mol
Non-thermal (ZPE) correction              0.20940829 Eh     131.41 kcal/mol
-----------------------------------------------------------------------
Total correction                          0.22289624 Eh     139.87 kcal/mol

--------
ENTHALPY
--------

The enthalpy is H = U + kB*T
                kB is Boltzmann's constant
Total free energy                 ...   -701.11021161 Eh
Thermal Enthalpy correction       ...      0.00094421 Eh       0.59 kcal/mol
-----------------------------------------------------------------------
Total Enthalpy                    ...   -701.10926740 Eh

Note: Only C1 symmetry has been detected, increase convergence thresholds
      if your molecule has a higher symmetry. Symmetry factor of 1.0 is
      used for the rotational entropy correction.

Note: Rotational entropy computed according to Herzberg
Infrared and Raman Spectra, Chapter V,1, Van Nostrand Reinhold, 1945
Point Group:  C1, Symmetry Number:   1
Rotational constants in cm-1:     0.034362     0.022396     0.016418

Vibrational entropy computed according to the QRRHO of S. Grimme
Chem.Eur.J. 2012 18 9955

-------
ENTROPY
-------

The entropy contributions are T*S = T*(S(el)+S(vib)+S(rot)+S(trans))
     S(el)   - electronic entropy
     S(vib)  - vibrational entropy
     S(rot)  - rotational entropy
     S(trans)- translational entropy
The entropies will be listed as multiplied by the temperature to get
units of energy

Electronic entropy                ...      0.00000000 Eh      0.00 kcal/mol
Vibrational entropy               ...      0.01874651 Eh     11.76 kcal/mol
Rotational entropy                ...      0.01483556 Eh      9.31 kcal/mol
Translational entropy             ...      0.01978162 Eh     12.41 kcal/mol
-----------------------------------------------------------------------

                             ****ORCA TERMINATED NORMALLY****
TOTAL RUN TIME: 0 days 1 hours 47 minutes 29 seconds 994 msec
