                         Program Version 5.0.2 -  RELEASE  -
|  1> # GGG-H_tt_013 (old 059)
|  2> ! wB97X-D3BJ Opt Freq def2-TZVPP def2/J RIJCOSX VeryTightSCF
|  3> ! PAL8 defgrid3 VeryTightOpt
|  4>
|  5> %maxcore 4096
|  6>
|  7> %geom
|  8>   MaxIter 300
|  9>   # MaxStep 0.1
| 10>   Calc_Hess true
| 11>   Recalc_Hess 10
| 12> end
| 13>
| 14> %chelpg
| 15>   grid 0.1
| 16>   rmax 3.0
| 17> end
| 18>
| 19> * xyz 1 1
| 20>  N   -1.121925   +1.907533   +2.904784
| 21>  H   -1.815258   +2.553221   +2.498197
| 22>  C   -1.024465   +2.027483   +4.348348
| 23>  C   -2.049499   +3.097213   +4.761215
| 24>  H   -1.247818   +1.063131   +4.842659
| 25>  H   -0.004828   +2.329508   +4.654791
| 26>  O   -2.740164   +3.655658   +3.937809
| 27>  C   -0.408109   +1.056584   +2.162849
| 28>  C   -0.646598   +1.134160   +0.631904
| 29>  O   +0.410754   +0.256266   +2.669788
| 30>  N   +0.000000   +0.000000   +0.000000
| 31>  H   -0.192661   +2.062262   +0.247102
| 32>  H   -1.722465   +1.148295   +0.396776
| 33>  H   -0.471468   -0.898925   +0.096025
| 34>  C   +1.368104   +0.000000   +0.000000
| 35>  C   +2.042872   -1.347994   +0.299808
| 36>  O   +2.061631   +1.009146   +0.000000
| 37>  H   +2.913868   -1.532155   -0.345287
| 38>  H   +1.371542   -2.219483   +0.303273
| 39>  O   -2.138917   +3.378514   +6.068197
| 40>  H   -1.516094   +2.844895   +6.599597
| 41>  N   +2.509866   -1.104498   +1.718991
| 42>  H   +1.674188   -0.658053   +2.244317
| 43>  H   +2.871242   -1.944232   +2.193911
| 44>  H   +3.246094   -0.378116   +1.699058
| 45> *
| 46>
| 47>                          ****END OF INPUT****
 Total Charge           Charge          ....    1
 Multiplicity           Mult            ....    1
 Number of Electrons    NEL             ....  100
Dispersion correction           -0.042661766
FINAL SINGLE POINT ENERGY      -701.335224681379
Dispersion correction            ... done
Dispersion correction in the Hessian             ... done   (      0.7 sec)
Dispersion correction           -0.042896420
FINAL SINGLE POINT ENERGY      -701.338736452613
Dispersion correction            ... done
Dispersion correction           -0.042902532
FINAL SINGLE POINT ENERGY      -701.338816241788
FINAL SINGLE POINT ENERGY      -701.338854045683
FINAL SINGLE POINT ENERGY      -701.338870846474
FINAL SINGLE POINT ENERGY      -701.338883218030
FINAL SINGLE POINT ENERGY      -701.338888577357
FINAL SINGLE POINT ENERGY      -701.338892944686
FINAL SINGLE POINT ENERGY      -701.338896043824
FINAL SINGLE POINT ENERGY      -701.338897555769
FINAL SINGLE POINT ENERGY      -701.338897988863
Dispersion correction            ... done
Dispersion correction in the Hessian             ... done   (      0.5 sec)
Dispersion correction           -0.042954752
FINAL SINGLE POINT ENERGY      -701.338898130205
Dispersion correction            ... done
                    ***********************HURRAY********************

CARTESIAN COORDINATES (ANGSTROEM)
---------------------------------
  N     -1.133056    1.918266    2.869793
  H     -1.762751    2.586503    2.441075
  C     -1.033382    2.026037    4.307758
  C     -1.978693    3.141305    4.744160
  H     -1.316300    1.086337    4.789933
  H     -0.010890    2.265885    4.612847
  O     -2.636270    3.759172    3.956774
  C     -0.466094    1.022537    2.153461
  C     -0.707773    1.082332    0.633674
  O      0.295234    0.191671    2.666013
  N      0.007675    0.004544   -0.011303
  H     -0.354171    2.040210    0.253167
  H     -1.772846    1.000749    0.418421
  H     -0.424569   -0.902923    0.040912
  C      1.361320    0.047308    0.075443
  C      2.073587   -1.284971    0.314257
  O      2.014634    1.063718    0.160339
  H      2.949485   -1.393392   -0.321005
  H      1.436213   -2.164344    0.247924
  O     -2.031298    3.391159    6.054522
  H     -1.449266    2.814754    6.560427
  N      2.513288   -1.123467    1.744479
  H      1.686771   -0.766362    2.286444
  H      2.887631   -1.978925    2.149668
  H      3.221414   -0.387690    1.784932

 Multiplicity           Mult            ....    1
 Number of Electrons    NEL             ....  100
 Basis Dimension        Dim             ....  571

ORBITAL ENERGIES
----------------

  NO   OCC          E(Eh)            E(eV)
   0   2.0000     -19.382657      -527.4289
   1   2.0000     -19.346855      -526.4547
   2   2.0000     -19.346693      -526.4503
   3   2.0000     -19.322804      -525.8002
   4   2.0000     -14.699444      -399.9922
   5   2.0000     -14.596986      -397.2042
   6   2.0000     -14.588375      -396.9699
   7   2.0000     -10.544281      -286.9245
   8   2.0000     -10.536524      -286.7134
   9   2.0000     -10.532635      -286.6076
  10   2.0000     -10.511438      -286.0308
  11   2.0000     -10.468623      -284.8657
  12   2.0000     -10.461744      -284.6785
  13   2.0000      -1.365637       -37.1609
  14   2.0000      -1.355462       -36.8840
  15   2.0000      -1.332770       -36.2665
  16   2.0000      -1.300316       -35.3834
  17   2.0000      -1.282235       -34.8914
  18   2.0000      -1.225577       -33.3496
  19   2.0000      -1.214853       -33.0578
  20   2.0000      -1.061809       -28.8933
  21   2.0000      -1.033173       -28.1141
  22   2.0000      -0.981976       -26.7209
  23   2.0000      -0.894554       -24.3421
  24   2.0000      -0.881603       -23.9896
  25   2.0000      -0.875324       -23.8188
  26   2.0000      -0.863475       -23.4963
  27   2.0000      -0.852032       -23.1850
  28   2.0000      -0.820641       -22.3308
  29   2.0000      -0.797818       -21.7097
  30   2.0000      -0.770777       -20.9739
  31   2.0000      -0.757574       -20.6146
  32   2.0000      -0.749038       -20.3824
  33   2.0000      -0.741784       -20.1850
  34   2.0000      -0.733941       -19.9715
  35   2.0000      -0.706596       -19.2275
  36   2.0000      -0.699155       -19.0250
  37   2.0000      -0.698457       -19.0060
  38   2.0000      -0.683245       -18.5920
  39   2.0000      -0.667256       -18.1570
  40   2.0000      -0.656501       -17.8643
  41   2.0000      -0.642511       -17.4836
  42   2.0000      -0.623552       -16.9677
  43   2.0000      -0.619237       -16.8503
  44   2.0000      -0.552603       -15.0371
  45   2.0000      -0.551302       -15.0017
  46   2.0000      -0.537760       -14.6332
  47   2.0000      -0.523986       -14.2584
  48   2.0000      -0.517836       -14.0910
  49   2.0000      -0.513893       -13.9837
  50   0.0000      -0.084318        -2.2944
  51   0.0000      -0.061959        -1.6860
  52   0.0000      -0.048803        -1.3280
  53   0.0000      -0.030106        -0.8192
  54   0.0000      -0.020709        -0.5635

MULLIKEN ATOMIC CHARGES
-----------------------
   0 N :   -0.169993
   1 H :    0.196568
   2 C :   -0.125366
   3 C :    0.325230
   4 H :    0.134052
   5 H :    0.132436
   6 O :   -0.290173
   7 C :    0.330821
   8 C :   -0.099836
   9 O :   -0.487693
  10 N :   -0.168199
  11 H :    0.159618
  12 H :    0.156696
  13 H :    0.177286
  14 C :    0.192376
  15 C :   -0.141123
  16 O :   -0.316671
  17 H :    0.173189
  18 H :    0.144598
  19 O :   -0.204884
  20 H :    0.218721
  21 N :   -0.056815
  22 H :    0.244940
  23 H :    0.232007
  24 H :    0.242215
Sum of atomic charges:    1.0000000

LOEWDIN ATOMIC CHARGES
----------------------
   0 N :    0.353668
   1 H :   -0.009782
   2 C :   -0.038940
   3 C :   -0.432012
   4 H :    0.033386
   5 H :    0.032843
   6 O :    0.148364
   7 C :   -0.353387
   8 C :   -0.026038
   9 O :    0.070388
  10 N :    0.328303
  11 H :    0.044740
  12 H :    0.037700
  13 H :   -0.018456
  14 C :   -0.404486
  15 C :    0.040009
  16 O :    0.124772
  17 H :    0.039027
  18 H :    0.028255
  19 O :    0.402425
  20 H :   -0.092854
  21 N :    0.603903
  22 H :   -0.010852
  23 H :    0.042629
  24 H :    0.056392

  Mayer bond orders larger than 0.100000
B(  0-N ,  1-H ) :   0.9251 B(  0-N ,  2-C ) :   0.9047 B(  0-N ,  7-C ) :   1.3717
B(  2-C ,  3-C ) :   0.9566 B(  2-C ,  4-H ) :   0.9752 B(  2-C ,  5-H ) :   0.9713
B(  3-C ,  6-O ) :   2.0593 B(  3-C , 19-O ) :   1.2588 B(  7-C ,  8-C ) :   0.9308
B(  7-C ,  9-O ) :   1.7170 B(  8-C , 10-N ) :   0.9322 B(  8-C , 11-H ) :   0.9699
B(  8-C , 12-H ) :   0.9849 B(  9-O , 22-H ) :   0.1560 B( 10-N , 13-H ) :   0.9707
B( 10-N , 14-C ) :   1.2291 B( 14-C , 15-C ) :   0.9522 B( 14-C , 16-O ) :   2.0317
B( 15-C , 17-H ) :   0.9865 B( 15-C , 18-H ) :   0.9960 B( 15-C , 21-N ) :   0.8810
B( 19-O , 20-H ) :   0.9785 B( 21-N , 22-H ) :   0.8575 B( 21-N , 23-H ) :   0.9387
B( 21-N , 24-H ) :   0.9242

Dispersion correction           -0.042954367
FINAL SINGLE POINT ENERGY      -701.338898151057

DIPOLE MOMENT
-------------
                                X             Y             Z
Electronic contribution:     -3.44678       5.10483       2.05091
Nuclear contribution   :      6.06998      -9.18390      -2.43567
                        -----------------------------------------
Total Dipole Moment    :      2.62319      -4.07908      -0.38477
                        -----------------------------------------
Magnitude (a.u.)       :      4.86498
Magnitude (Debye)      :     12.36580

Dispersion correction in the Hessian             ... done   (      0.5 sec)

VIBRATIONAL FREQUENCIES
-----------------------

Scaling factor for frequencies =  1.000000000  (already applied!)

   0:         0.00 cm**-1
   1:         0.00 cm**-1
   2:         0.00 cm**-1
   3:         0.00 cm**-1
   4:         0.00 cm**-1
   5:         0.00 cm**-1
   6:        24.41 cm**-1
   7:        60.43 cm**-1
   8:        63.39 cm**-1
   9:        69.10 cm**-1
  10:        93.16 cm**-1
  11:       129.61 cm**-1
  12:       167.92 cm**-1
  13:       183.97 cm**-1
  14:       266.27 cm**-1
  15:       268.77 cm**-1
  16:       303.29 cm**-1
  17:       308.74 cm**-1
  18:       350.67 cm**-1
  19:       403.68 cm**-1
  20:       433.59 cm**-1
  21:       450.46 cm**-1
  22:       539.88 cm**-1
  23:       558.19 cm**-1
  24:       585.62 cm**-1
  25:       593.78 cm**-1
  26:       652.79 cm**-1
  27:       676.02 cm**-1
  28:       693.48 cm**-1
  29:       736.81 cm**-1
  30:       787.74 cm**-1
  31:       878.41 cm**-1
  32:       888.87 cm**-1
  33:       913.06 cm**-1
  34:       980.45 cm**-1
  35:       994.70 cm**-1
  36:      1022.60 cm**-1
  37:      1056.92 cm**-1
  38:      1076.62 cm**-1
  39:      1135.44 cm**-1
  40:      1142.48 cm**-1
  41:      1162.69 cm**-1
  42:      1203.68 cm**-1
  43:      1261.97 cm**-1
  44:      1271.23 cm**-1
  45:      1281.67 cm**-1
  46:      1302.69 cm**-1
  47:      1314.31 cm**-1
  48:      1333.94 cm**-1
  49:      1381.85 cm**-1
  50:      1420.88 cm**-1
  51:      1434.89 cm**-1
  52:      1474.98 cm**-1
  53:      1502.20 cm**-1
  54:      1504.95 cm**-1
  55:      1541.40 cm**-1
  56:      1571.32 cm**-1
  57:      1601.11 cm**-1
  58:      1625.55 cm**-1
  59:      1681.92 cm**-1
  60:      1724.61 cm**-1
  61:      1819.18 cm**-1
  62:      1884.12 cm**-1
  63:      3003.45 cm**-1
  64:      3076.28 cm**-1
  65:      3117.73 cm**-1
  66:      3120.33 cm**-1
  67:      3132.80 cm**-1
  68:      3173.89 cm**-1
  69:      3203.62 cm**-1
  70:      3476.46 cm**-1
  71:      3557.07 cm**-1
  72:      3571.96 cm**-1
  73:      3661.91 cm**-1
  74:      3853.82 cm**-1

IR SPECTRUM
-----------

 Mode   freq       eps      Int      T**2         TX        TY        TZ
       cm**-1   L/(mol*cm) km/mol    a.u.
----------------------------------------------------------------------------
  6:     24.41   0.000299    1.51  0.003826  (-0.020789 -0.051152 -0.027877)
  7:     60.43   0.001138    5.75  0.005875  ( 0.048932  0.023279 -0.054208)
  8:     63.39   0.000154    0.78  0.000757  (-0.026453 -0.001526  0.007417)
  9:     69.10   0.000908    4.59  0.004103  (-0.051624 -0.034115  0.016545)
 10:     93.16   0.001216    6.14  0.004072  ( 0.052046  0.005800 -0.036460)
 11:    129.61   0.006512   32.91  0.015681  ( 0.012109  0.100462  0.073766)
 12:    167.92   0.013480   68.12  0.025050  (-0.102024  0.059087  0.105592)
 13:    183.97   0.001126    5.69  0.001909  (-0.026768 -0.034448  0.002485)
 14:    266.27   0.004754   24.03  0.005572  ( 0.069936 -0.009273  0.024388)
 15:    268.77   0.010008   50.57  0.011619  ( 0.045576 -0.049278  0.084344)
 16:    303.29   0.001337    6.76  0.001375  ( 0.002670 -0.018772 -0.031874)
 17:    308.74   0.002516   12.71  0.002543  (-0.034516  0.029728  0.021631)
 18:    350.67   0.000361    1.82  0.000321  (-0.007533  0.015997 -0.002920)
 19:    403.68   0.007916   40.00  0.006119  ( 0.062165 -0.042427 -0.021325)
 20:    433.59   0.001523    7.70  0.001096  ( 0.020441 -0.023602 -0.011002)
 21:    450.46   0.018165   91.80  0.012584  ( 0.082754  0.074986 -0.010636)
 22:    539.88   0.001714    8.66  0.000991  ( 0.012463 -0.022422 -0.018242)
 23:    558.19   0.005124   25.90  0.002865  ( 0.040806  0.031261 -0.014916)
 24:    585.62   0.006597   33.34  0.003515  ( 0.035902  0.025754  0.039538)
 25:    593.78   0.005184   26.20  0.002724  ( 0.030846  0.018602  0.037773)
 26:    652.79   0.004742   23.97  0.002267  (-0.010103  0.029604  0.035897)
 27:    676.02   0.008281   41.85  0.003823  ( 0.000435  0.019863 -0.058549)
 28:    693.48   0.013149   66.45  0.005917  (-0.061385 -0.032657 -0.032899)
 29:    736.81   0.003246   16.41  0.001375  ( 0.027644 -0.015042  0.019610)
 30:    787.74   0.002977   15.04  0.001179  (-0.001728 -0.000983 -0.034283)
 31:    878.41   0.001495    7.55  0.000531  (-0.009417  0.021028 -0.000387)
 32:    888.87   0.002010   10.16  0.000706  ( 0.002218  0.003343 -0.026259)
 33:    913.06   0.002582   13.05  0.000883  ( 0.012829 -0.000376 -0.026794)
 34:    980.45   0.000732    3.70  0.000233  (-0.008160 -0.003956 -0.012272)
 35:    994.70   0.008812   44.53  0.002764  (-0.038098  0.030259  0.019934)
 36:   1022.60   0.000364    1.84  0.000111  ( 0.007115  0.007692  0.001159)
 37:   1056.92   0.001087    5.49  0.000321  ( 0.017374 -0.004068  0.001586)
 38:   1076.62   0.002696   13.62  0.000781  ( 0.026879  0.006727 -0.003689)
 39:   1135.44   0.002749   13.89  0.000756  ( 0.003933 -0.025384 -0.009788)
 40:   1142.48   0.010725   54.20  0.002930  (-0.036126  0.038416  0.012195)
 41:   1162.69   0.002589   13.09  0.000695  (-0.017546  0.007590  0.018152)
 42:   1203.68   0.001979   10.00  0.000513  (-0.002271  0.000543 -0.022532)
 43:   1261.97   0.000323    1.63  0.000080  ( 0.007926  0.004110 -0.000335)
 44:   1271.23   0.008123   41.05  0.001994  (-0.008984  0.010650  0.042425)
 45:   1281.67   0.001831    9.25  0.000446  (-0.009160  0.013701 -0.013200)
 46:   1302.69   0.008103   40.95  0.001941  ( 0.032877 -0.016421  0.024300)
 47:   1314.31   0.059105  298.69  0.014034  ( 0.030851 -0.048037 -0.103800)
 48:   1333.94   0.009363   47.32  0.002190  (-0.029051  0.010620  0.035125)
 49:   1381.85   0.022971  116.09  0.005188  ( 0.031735 -0.043633 -0.047713)
 50:   1420.88   0.001462    7.39  0.000321  (-0.004598  0.001782 -0.017229)
 51:   1434.89   0.034094  172.29  0.007415  (-0.013897  0.021742  0.082152)
 52:   1474.98   0.003113   15.73  0.000659  ( 0.001184 -0.019970  0.016077)
 53:   1502.20   0.004648   23.49  0.000966  (-0.022781  0.017690 -0.011559)
 54:   1504.95   0.003145   15.90  0.000652  ( 0.006574 -0.022669 -0.009752)
 55:   1541.40   0.027352  138.23  0.005538  ( 0.053154 -0.024813  0.045788)
 56:   1571.32   0.040011  202.20  0.007946  (-0.087280  0.017198  0.005702)
 57:   1601.11   0.042553  215.04  0.008294  ( 0.015785 -0.026733 -0.085615)
 58:   1625.55   0.029220  147.67  0.005609  ( 0.018733 -0.068724 -0.023143)
 59:   1681.92   0.039957  201.93  0.007414  ( 0.061899 -0.058545 -0.012436)
 60:   1724.61   0.073156  369.70  0.013237  (-0.069424  0.087785  0.026675)
 61:   1819.18   0.046184  233.40  0.007922  (-0.075007 -0.045893  0.013795)
 62:   1884.12   0.046045  232.69  0.007626  (-0.045709  0.043784 -0.060167)
 63:   3003.45   0.180171  910.51  0.018720  ( 0.103516 -0.069246 -0.056653)
 64:   3076.28   0.002635   13.31  0.000267  ( 0.000846 -0.004383 -0.015727)
 65:   3117.73   0.000363    1.83  0.000036  ( 0.004844  0.003456 -0.000942)
 66:   3120.33   0.002123   10.73  0.000212  (-0.010271  0.003766  0.009625)
 67:   3132.80   0.000693    3.50  0.000069  ( 0.008214  0.000390 -0.001180)
 68:   3173.89   0.000213    1.07  0.000021  (-0.002592 -0.003116  0.002115)
 69:   3203.62   0.000144    0.73  0.000014  ( 0.001183 -0.002534 -0.002485)
 70:   3476.46   0.016920   85.51  0.001519  ( 0.038362  0.003243  0.006053)
 71:   3557.07   0.022056  111.46  0.001935  (-0.007343  0.042029 -0.010707)
 72:   3571.96   0.032621  164.85  0.002850  (-0.034590  0.039688  0.008849)
 73:   3661.91   0.009087   45.92  0.000774  ( 0.018178  0.020877  0.002852)
 74:   3853.82   0.017827   90.09  0.001444  ( 0.014419 -0.011638  0.033168)

--------------------------
THERMOCHEMISTRY AT 298.15K
--------------------------

Temperature         ... 298.15 K
Pressure            ... 1.00 atm
Total Mass          ... 190.18 AMU

Throughout the following assumptions are being made:
  (1) The electronic state is orbitally nondegenerate
  (2) There are no thermally accessible electronically excited states
  (3) Hindered rotations indicated by low frequency modes are not
      treated as such but are treated as vibrations and this may
      cause some error
  (4) All equations used are the standard statistical mechanics
      equations for an ideal gas
  (5) All vibrations are strictly harmonic

freq.      24.41  E(vib)   ...       0.56
freq.      60.43  E(vib)   ...       0.51
freq.      63.39  E(vib)   ...       0.51
freq.      69.10  E(vib)   ...       0.50
freq.      93.16  E(vib)   ...       0.47
freq.     129.61  E(vib)   ...       0.43
freq.     167.92  E(vib)   ...       0.38
freq.     183.97  E(vib)   ...       0.37
freq.     266.27  E(vib)   ...       0.29
freq.     268.77  E(vib)   ...       0.29
freq.     303.29  E(vib)   ...       0.26
freq.     308.74  E(vib)   ...       0.26
freq.     350.67  E(vib)   ...       0.23
freq.     403.68  E(vib)   ...       0.19
freq.     433.59  E(vib)   ...       0.17
freq.     450.46  E(vib)   ...       0.17
freq.     539.88  E(vib)   ...       0.12
freq.     558.19  E(vib)   ...       0.12
freq.     585.62  E(vib)   ...       0.11
freq.     593.78  E(vib)   ...       0.10
freq.     652.79  E(vib)   ...       0.08
freq.     676.02  E(vib)   ...       0.08
freq.     693.48  E(vib)   ...       0.07
freq.     736.81  E(vib)   ...       0.06
freq.     787.74  E(vib)   ...       0.05
freq.     878.41  E(vib)   ...       0.04
freq.     888.87  E(vib)   ...       0.04
freq.     913.06  E(vib)   ...       0.03
freq.     980.45  E(vib)   ...       0.02
freq.     994.70  E(vib)   ...       0.02
freq.    1022.60  E(vib)   ...       0.02
freq.    1056.92  E(vib)   ...       0.02
freq.    1076.62  E(vib)   ...       0.02
freq.    1135.44  E(vib)   ...       0.01
freq.    1142.48  E(vib)   ...       0.01
freq.    1162.69  E(vib)   ...       0.01
freq.    1203.68  E(vib)   ...       0.01
freq.    1261.97  E(vib)   ...       0.01
freq.    1271.23  E(vib)   ...       0.01
freq.    1281.67  E(vib)   ...       0.01
freq.    1302.69  E(vib)   ...       0.01
freq.    1314.31  E(vib)   ...       0.01
freq.    1333.94  E(vib)   ...       0.01
freq.    1381.85  E(vib)   ...       0.01
freq.    1420.88  E(vib)   ...       0.00
freq.    1434.89  E(vib)   ...       0.00
freq.    1474.98  E(vib)   ...       0.00
freq.    1502.20  E(vib)   ...       0.00
freq.    1504.95  E(vib)   ...       0.00
freq.    1541.40  E(vib)   ...       0.00
freq.    1571.32  E(vib)   ...       0.00
freq.    1601.11  E(vib)   ...       0.00
freq.    1625.55  E(vib)   ...       0.00
freq.    1681.92  E(vib)   ...       0.00
freq.    1724.61  E(vib)   ...       0.00
freq.    1819.18  E(vib)   ...       0.00
freq.    1884.12  E(vib)   ...       0.00
freq.    3003.45  E(vib)   ...       0.00
freq.    3076.28  E(vib)   ...       0.00
freq.    3117.73  E(vib)   ...       0.00
freq.    3120.33  E(vib)   ...       0.00
freq.    3132.80  E(vib)   ...       0.00
freq.    3173.89  E(vib)   ...       0.00
freq.    3203.62  E(vib)   ...       0.00
freq.    3476.46  E(vib)   ...       0.00
freq.    3557.07  E(vib)   ...       0.00
freq.    3571.96  E(vib)   ...       0.00
freq.    3661.91  E(vib)   ...       0.00
freq.    3853.82  E(vib)   ...       0.00

------------
INNER ENERGY
------------

The inner energy is: U= E(el) + E(ZPE) + E(vib) + E(rot) + E(trans)
    E(el)   - is the total energy from the electronic structure calculation
              = E(kin-el) + E(nuc-el) + E(el-el) + E(nuc-nuc)
    E(ZPE)  - the the zero temperature vibrational energy from the frequency calculation
    E(vib)  - the the finite temperature correction to E(ZPE) due to population
              of excited vibrational states
    E(rot)  - is the rotational thermal energy
    E(trans)- is the translational thermal energy

Summary of contributions to the inner energy U:
Electronic energy                ...   -701.33889815 Eh
Zero point energy                ...      0.20900314 Eh     131.15 kcal/mol
Thermal vibrational correction   ...      0.01069310 Eh       6.71 kcal/mol
Thermal rotational correction    ...      0.00141627 Eh       0.89 kcal/mol
Thermal translational correction ...      0.00141627 Eh       0.89 kcal/mol
-----------------------------------------------------------------------
Total thermal energy                   -701.11636937 Eh

Summary of corrections to the electronic energy:
(perhaps to be used in another calculation)
Total thermal correction                  0.01352564 Eh       8.49 kcal/mol
Non-thermal (ZPE) correction              0.20900314 Eh     131.15 kcal/mol
-----------------------------------------------------------------------
Total correction                          0.22252879 Eh     139.64 kcal/mol

--------
ENTHALPY
--------

The enthalpy is H = U + kB*T
                kB is Boltzmann's constant
Total free energy                 ...   -701.11636937 Eh
Thermal Enthalpy correction       ...      0.00094421 Eh       0.59 kcal/mol
-----------------------------------------------------------------------
Total Enthalpy                    ...   -701.11542516 Eh

Note: Only C1 symmetry has been detected, increase convergence thresholds
      if your molecule has a higher symmetry. Symmetry factor of 1.0 is
      used for the rotational entropy correction.

Note: Rotational entropy computed according to Herzberg
Infrared and Raman Spectra, Chapter V,1, Van Nostrand Reinhold, 1945
Point Group:  C1, Symmetry Number:   1
Rotational constants in cm-1:     0.065979     0.010736     0.009869

Vibrational entropy computed according to the QRRHO of S. Grimme
Chem.Eur.J. 2012 18 9955

-------
ENTROPY
-------

The entropy contributions are T*S = T*(S(el)+S(vib)+S(rot)+S(trans))
     S(el)   - electronic entropy
     S(vib)  - vibrational entropy
     S(rot)  - rotational entropy
     S(trans)- translational entropy
The entropies will be listed as multiplied by the temperature to get
units of energy

Electronic entropy                ...      0.00000000 Eh      0.00 kcal/mol
Vibrational entropy               ...      0.01903480 Eh     11.94 kcal/mol
Rotational entropy                ...      0.01511496 Eh      9.48 kcal/mol
Translational entropy             ...      0.01978162 Eh     12.41 kcal/mol
-----------------------------------------------------------------------

                             ****ORCA TERMINATED NORMALLY****
TOTAL RUN TIME: 0 days 2 hours 14 minutes 38 seconds 417 msec
