                         Program Version 5.0.2 -  RELEASE  -
|  1> # GGG-H_tt_007 (old 035)
|  2> ! wB97X-D3BJ Opt Freq def2-TZVPP def2/J RIJCOSX VeryTightSCF
|  3> ! PAL8 defgrid3 VeryTightOpt
|  4>
|  5> %maxcore 4096
|  6>
|  7> %geom
|  8>   MaxIter 300
|  9>   # MaxStep 0.1
| 10>   Calc_Hess true
| 11>   Recalc_Hess 10
| 12> end
| 13>
| 14> %chelpg
| 15>   grid 0.1
| 16>   rmax 3.0
| 17> end
| 18>
| 19> * xyz 1 1
| 20>  N   -1.910840   +0.130006   -2.701437
| 21>  H   -2.759717   +0.335120   -2.176327
| 22>  C   -1.987060   -0.765407   -3.837346
| 23>  C   -1.489678   -2.171288   -3.478863
| 24>  H   -3.019240   -0.821628   -4.214521
| 25>  H   -1.348773   -0.394845   -4.659319
| 26>  O   -0.886317   -2.467972   -2.452810
| 27>  C   -0.706563   +0.486553   -2.195453
| 28>  C   -0.679265   +1.047015   -0.767130
| 29>  O   +0.349107   +0.218469   -2.798863
| 30>  N   +0.000000   +0.000000   +0.000000
| 31>  H   -1.678752   +1.257304   -0.355357
| 32>  H   -0.058296   +1.954233   -0.719382
| 33>  H   -0.467722   -0.908872   -0.012056
| 34>  C   +1.384128   +0.000000   +0.000000
| 35>  C   +2.010786   -1.393122   -0.202455
| 36>  O   +2.068568   +1.004956   +0.000000
| 37>  H   +1.604034   -2.182974   +0.448311
| 38>  H   +3.096964   -1.311944   -0.069040
| 39>  O   -1.778341   -3.035872   -4.448205
| 40>  H   -1.437701   -3.923939   -4.202794
| 41>  N   +1.724610   -1.759485   -1.650797
| 42>  H   +2.510842   -2.255613   -2.093198
| 43>  H   +0.857970   -2.329635   -1.770766
| 44>  H   +1.479496   -0.879777   -2.209112
| 45> *
| 46>
| 47>                          ****END OF INPUT****
 Total Charge           Charge          ....    1
 Multiplicity           Mult            ....    1
 Number of Electrons    NEL             ....  100
Dispersion correction           -0.045608737
FINAL SINGLE POINT ENERGY      -701.340103178688
Dispersion correction            ... done
Dispersion correction in the Hessian             ... done   (      0.6 sec)
Dispersion correction           -0.045751533
FINAL SINGLE POINT ENERGY      -701.343705198993
Dispersion correction            ... done
Dispersion correction           -0.045665855
FINAL SINGLE POINT ENERGY      -701.343813677080
FINAL SINGLE POINT ENERGY      -701.343877923227
FINAL SINGLE POINT ENERGY      -701.343918931807
FINAL SINGLE POINT ENERGY      -701.344004945195
FINAL SINGLE POINT ENERGY      -701.344091082498
FINAL SINGLE POINT ENERGY      -701.344172865119
FINAL SINGLE POINT ENERGY      -701.344278872787
FINAL SINGLE POINT ENERGY      -701.344364986059
FINAL SINGLE POINT ENERGY      -701.344391180952
Dispersion correction           -0.045452710
FINAL SINGLE POINT ENERGY      -701.344398423273
Dispersion correction            ... done
Dispersion correction           -0.045451594
FINAL SINGLE POINT ENERGY      -701.344398483868
Dispersion correction            ... done
                    ***********************HURRAY********************

CARTESIAN COORDINATES (ANGSTROEM)
---------------------------------
  N     -1.964851    0.057652   -2.593849
  H     -2.777076    0.223028   -2.026005
  C     -2.072359   -0.803771   -3.742341
  C     -1.434238   -2.164979   -3.512994
  H     -3.118969   -0.947617   -4.007200
  H     -1.572476   -0.360811   -4.607033
  O     -0.740513   -2.478448   -2.565616
  C     -0.754742    0.498496   -2.187150
  C     -0.682936    1.105740   -0.785681
  O      0.260627    0.285225   -2.833880
  N     -0.006152    0.087739    0.015319
  H     -1.658491    1.334480   -0.358459
  H     -0.069790    2.003683   -0.799066
  H     -0.509962   -0.780010    0.115033
  C      1.352569   -0.008171   -0.107085
  C      1.900343   -1.436140   -0.187969
  O      2.098989    0.919842   -0.290068
  H      1.314535   -2.187973    0.338822
  H      2.934424   -1.447589    0.146054
  O     -1.724129   -2.990969   -4.505764
  H     -1.304456   -3.848505   -4.349799
  N      1.867073   -1.761343   -1.658820
  H      2.453007   -2.564563   -1.879311
  H      0.901601   -1.954238   -1.986621
  H      2.186214   -0.949473   -2.197434

 Multiplicity           Mult            ....    1
 Number of Electrons    NEL             ....  100
 Basis Dimension        Dim             ....  571

ORBITAL ENERGIES
----------------

  NO   OCC          E(Eh)            E(eV)
   0   2.0000     -19.417761      -528.3841
   1   2.0000     -19.369332      -527.0663
   2   2.0000     -19.335400      -526.1430
   3   2.0000     -19.328830      -525.9642
   4   2.0000     -14.693194      -399.8221
   5   2.0000     -14.593845      -397.1187
   6   2.0000     -14.589462      -396.9995
   7   2.0000     -10.572577      -287.6945
   8   2.0000     -10.533113      -286.6206
   9   2.0000     -10.525916      -286.4247
  10   2.0000     -10.501726      -285.7665
  11   2.0000     -10.472001      -284.9576
  12   2.0000     -10.459422      -284.6153
  13   2.0000      -1.407517       -38.3005
  14   2.0000      -1.342055       -36.5192
  15   2.0000      -1.326830       -36.1049
  16   2.0000      -1.312047       -35.7026
  17   2.0000      -1.294217       -35.2174
  18   2.0000      -1.217377       -33.1265
  19   2.0000      -1.214555       -33.0497
  20   2.0000      -1.057226       -28.7686
  21   2.0000      -1.036430       -28.2027
  22   2.0000      -0.987693       -26.8765
  23   2.0000      -0.905381       -24.6367
  24   2.0000      -0.882305       -24.0087
  25   2.0000      -0.867821       -23.6146
  26   2.0000      -0.860030       -23.4026
  27   2.0000      -0.855073       -23.2677
  28   2.0000      -0.805314       -21.9137
  29   2.0000      -0.790221       -21.5030
  30   2.0000      -0.780594       -21.2411
  31   2.0000      -0.770895       -20.9771
  32   2.0000      -0.752620       -20.4798
  33   2.0000      -0.749737       -20.4014
  34   2.0000      -0.743908       -20.2428
  35   2.0000      -0.724665       -19.7191
  36   2.0000      -0.700413       -19.0592
  37   2.0000      -0.682660       -18.5761
  38   2.0000      -0.680650       -18.5214
  39   2.0000      -0.671659       -18.2768
  40   2.0000      -0.658214       -17.9109
  41   2.0000      -0.647781       -17.6270
  42   2.0000      -0.637090       -17.3361
  43   2.0000      -0.627993       -17.0886
  44   2.0000      -0.594708       -16.1828
  45   2.0000      -0.565992       -15.4014
  46   2.0000      -0.544731       -14.8229
  47   2.0000      -0.523380       -14.2419
  48   2.0000      -0.519684       -14.1413
  49   2.0000      -0.496463       -13.5094
  50   0.0000      -0.086944        -2.3659
  51   0.0000      -0.063835        -1.7370
  52   0.0000      -0.054940        -1.4950
  53   0.0000      -0.033482        -0.9111
  54   0.0000      -0.025705        -0.6995

MULLIKEN ATOMIC CHARGES
-----------------------
   0 N :   -0.179857
   1 H :    0.190130
   2 C :   -0.072273
   3 C :    0.358180
   4 H :    0.154458
   5 H :    0.151138
   6 O :   -0.403376
   7 C :    0.219784
   8 C :   -0.050958
   9 O :   -0.421747
  10 N :   -0.157513
  11 H :    0.123394
  12 H :    0.149819
  13 H :    0.164538
  14 C :    0.172768
  15 C :   -0.146885
  16 O :   -0.273593
  17 H :    0.160546
  18 H :    0.173539
  19 O :   -0.220673
  20 H :    0.243745
  21 N :   -0.059347
  22 H :    0.233033
  23 H :    0.241022
  24 H :    0.250127
Sum of atomic charges:    1.0000000

LOEWDIN ATOMIC CHARGES
----------------------
   0 N :    0.337487
   1 H :   -0.016300
   2 C :   -0.032554
   3 C :   -0.404080
   4 H :    0.044852
   5 H :    0.050371
   6 O :    0.091231
   7 C :   -0.382665
   8 C :   -0.017795
   9 O :    0.068839
  10 N :    0.319237
  11 H :    0.025020
  12 H :    0.044821
  13 H :   -0.026440
  14 C :   -0.408737
  15 C :    0.038245
  16 O :    0.150630
  17 H :    0.028699
  18 H :    0.040630
  19 O :    0.409884
  20 H :   -0.071384
  21 N :    0.605434
  22 H :    0.046638
  23 H :    0.000033
  24 H :    0.057904

  Mayer bond orders larger than 0.100000
B(  0-N ,  1-H ) :   0.9632 B(  0-N ,  2-C ) :   0.9260 B(  0-N ,  7-C ) :   1.2550
B(  2-C ,  3-C ) :   0.9380 B(  2-C ,  4-H ) :   0.9753 B(  2-C ,  5-H ) :   0.9602
B(  3-C ,  6-O ) :   1.8775 B(  3-C , 19-O ) :   1.3267 B(  6-O , 23-H ) :   0.1180
B(  7-C ,  8-C ) :   0.9341 B(  7-C ,  9-O ) :   1.9141 B(  8-C , 10-N ) :   0.8883
B(  8-C , 11-H ) :   1.0005 B(  8-C , 12-H ) :   0.9876 B( 10-N , 13-H ) :   0.9746
B( 10-N , 14-C ) :   1.2168 B( 14-C , 15-C ) :   0.9330 B( 14-C , 16-O ) :   2.0836
B( 15-C , 17-H ) :   0.9953 B( 15-C , 18-H ) :   0.9804 B( 15-C , 21-N ) :   0.8670
B( 19-O , 20-H ) :   0.9455 B( 21-N , 22-H ) :   0.9373 B( 21-N , 23-H ) :   0.8878
B( 21-N , 24-H ) :   0.9116

Dispersion correction           -0.045451411
FINAL SINGLE POINT ENERGY      -701.344398456295

DIPOLE MOMENT
-------------
                                X             Y             Z
Electronic contribution:     -0.53516       0.41821      -1.47688
Nuclear contribution   :      0.32290      -2.72685       1.63973
                        -----------------------------------------
Total Dipole Moment    :     -0.21226      -2.30864       0.16285
                        -----------------------------------------
Magnitude (a.u.)       :      2.32409
Magnitude (Debye)      :      5.90737

Dispersion correction in the Hessian             ... done   (      0.6 sec)

VIBRATIONAL FREQUENCIES
-----------------------

Scaling factor for frequencies =  1.000000000  (already applied!)

   0:         0.00 cm**-1
   1:         0.00 cm**-1
   2:         0.00 cm**-1
   3:         0.00 cm**-1
   4:         0.00 cm**-1
   5:         0.00 cm**-1
   6:        44.73 cm**-1
   7:        54.97 cm**-1
   8:        69.94 cm**-1
   9:        95.61 cm**-1
  10:       122.65 cm**-1
  11:       139.49 cm**-1
  12:       198.17 cm**-1
  13:       207.69 cm**-1
  14:       231.71 cm**-1
  15:       266.64 cm**-1
  16:       283.16 cm**-1
  17:       304.83 cm**-1
  18:       357.24 cm**-1
  19:       369.76 cm**-1
  20:       436.77 cm**-1
  21:       476.17 cm**-1
  22:       503.40 cm**-1
  23:       520.22 cm**-1
  24:       583.20 cm**-1
  25:       614.31 cm**-1
  26:       669.54 cm**-1
  27:       674.61 cm**-1
  28:       734.33 cm**-1
  29:       771.89 cm**-1
  30:       809.62 cm**-1
  31:       851.51 cm**-1
  32:       878.65 cm**-1
  33:       905.59 cm**-1
  34:       917.18 cm**-1
  35:       977.94 cm**-1
  36:      1029.22 cm**-1
  37:      1048.73 cm**-1
  38:      1060.59 cm**-1
  39:      1122.12 cm**-1
  40:      1134.14 cm**-1
  41:      1149.09 cm**-1
  42:      1206.85 cm**-1
  43:      1242.74 cm**-1
  44:      1275.19 cm**-1
  45:      1298.34 cm**-1
  46:      1318.07 cm**-1
  47:      1339.57 cm**-1
  48:      1349.37 cm**-1
  49:      1388.14 cm**-1
  50:      1412.88 cm**-1
  51:      1450.81 cm**-1
  52:      1471.89 cm**-1
  53:      1489.89 cm**-1
  54:      1505.06 cm**-1
  55:      1559.53 cm**-1
  56:      1572.85 cm**-1
  57:      1579.00 cm**-1
  58:      1648.73 cm**-1
  59:      1666.47 cm**-1
  60:      1760.65 cm**-1
  61:      1797.93 cm**-1
  62:      1842.24 cm**-1
  63:      3103.61 cm**-1
  64:      3124.57 cm**-1
  65:      3129.05 cm**-1
  66:      3167.90 cm**-1
  67:      3194.75 cm**-1
  68:      3202.50 cm**-1
  69:      3207.50 cm**-1
  70:      3440.58 cm**-1
  71:      3544.50 cm**-1
  72:      3635.79 cm**-1
  73:      3689.39 cm**-1
  74:      3796.80 cm**-1

IR SPECTRUM
-----------

 Mode   freq       eps      Int      T**2         TX        TY        TZ
       cm**-1   L/(mol*cm) km/mol    a.u.
----------------------------------------------------------------------------
  6:     44.73   0.001318    6.66  0.009198  (-0.007012  0.012778  0.094790)
  7:     54.97   0.000246    1.24  0.001395  (-0.014992 -0.007178 -0.033450)
  8:     69.94   0.001284    6.49  0.005731  (-0.028201  0.023648  0.066154)
  9:     95.61   0.000436    2.20  0.001423  (-0.029079  0.008916 -0.022303)
 10:    122.65   0.004435   22.41  0.011285  (-0.085005  0.015859 -0.061703)
 11:    139.49   0.006307   31.87  0.014110  ( 0.015036  0.105298 -0.052878)
 12:    198.17   0.008302   41.96  0.013074  (-0.092686 -0.001992 -0.066926)
 13:    207.69   0.000125    0.63  0.000188  ( 0.010330 -0.004954  0.007559)
 14:    231.71   0.003620   18.30  0.004876  ( 0.038981 -0.019120 -0.054688)
 15:    266.64   0.000677    3.42  0.000793  ( 0.008487  0.021079 -0.016625)
 16:    283.16   0.002160   10.91  0.002380  (-0.021707 -0.037890 -0.021759)
 17:    304.83   0.003000   15.16  0.003071  ( 0.033248 -0.039405 -0.020329)
 18:    357.24   0.004863   24.57  0.004248  ( 0.034195 -0.052718  0.017301)
 19:    369.76   0.002709   13.69  0.002286  ( 0.045165  0.000905  0.015665)
 20:    436.77   0.003659   18.49  0.002614  (-0.037798  0.026758 -0.021666)
 21:    476.17   0.011925   60.26  0.007815  (-0.019722  0.084998 -0.014199)
 22:    503.40   0.006203   31.35  0.003845  ( 0.033290  0.031972  0.041413)
 23:    520.22   0.005352   27.04  0.003210  ( 0.020164 -0.004799 -0.052732)
 24:    583.20   0.011056   55.87  0.005916  (-0.018703 -0.000952  0.074601)
 25:    614.31   0.005727   28.94  0.002909  ( 0.026426 -0.046476 -0.007144)
 26:    669.54   0.023949  121.03  0.011162  ( 0.077368  0.044051 -0.056886)
 27:    674.61   0.008776   44.35  0.004060  (-0.006062  0.010292  0.062586)
 28:    734.33   0.006399   32.34  0.002719  (-0.033683  0.018541  0.035226)
 29:    771.89   0.000461    2.33  0.000187  (-0.008087 -0.008967 -0.006385)
 30:    809.62   0.003211   16.23  0.001238  ( 0.009625  0.003405 -0.033668)
 31:    851.51   0.003245   16.40  0.001189  ( 0.000580 -0.022973 -0.025715)
 32:    878.65   0.002903   14.67  0.001031  ( 0.026269  0.010491  0.015195)
 33:    905.59   0.000895    4.53  0.000309  (-0.001586 -0.015016 -0.008977)
 34:    917.18   0.002338   11.81  0.000795  ( 0.004029  0.017169  0.022008)
 35:    977.94   0.000821    4.15  0.000262  (-0.010555  0.005372  0.011029)
 36:   1029.22   0.000847    4.28  0.000257  (-0.013108 -0.002560 -0.008853)
 37:   1048.73   0.002108   10.65  0.000627  ( 0.024286  0.006127 -0.000136)
 38:   1060.59   0.002017   10.20  0.000594  ( 0.021455 -0.000972 -0.011504)
 39:   1122.12   0.003726   18.83  0.001036  (-0.009910  0.029694 -0.007497)
 40:   1134.14   0.009331   47.16  0.002567  ( 0.042391 -0.025274  0.011475)
 41:   1149.09   0.002020   10.21  0.000549  (-0.010021  0.015465  0.014455)
 42:   1206.85   0.048936  247.30  0.012654  (-0.028537 -0.079551 -0.074236)
 43:   1242.74   0.005925   29.94  0.001488  ( 0.036664 -0.001152  0.011925)
 44:   1275.19   0.007514   37.97  0.001839  (-0.035940  0.020984 -0.010332)
 45:   1298.34   0.002755   13.92  0.000662  ( 0.016475 -0.019745  0.000877)
 46:   1318.07   0.006471   32.70  0.001532  (-0.014750 -0.027402 -0.023740)
 47:   1339.57   0.004448   22.48  0.001036  ( 0.018633 -0.021908 -0.014460)
 48:   1349.37   0.006837   34.55  0.001581  ( 0.019774  0.024796  0.023988)
 49:   1388.14   0.000718    3.63  0.000161  ( 0.006179 -0.001521  0.010997)
 50:   1412.88   0.000774    3.91  0.000171  ( 0.012790 -0.002352 -0.001362)
 51:   1450.81   0.007582   38.32  0.001631  ( 0.003042 -0.038586  0.011520)
 52:   1471.89   0.011110   56.15  0.002356  (-0.001914  0.032518  0.035979)
 53:   1489.89   0.004031   20.37  0.000844  (-0.007084 -0.024530 -0.013870)
 54:   1505.06   0.004834   24.43  0.001002  ( 0.018783 -0.022980  0.011018)
 55:   1559.53   0.021420  108.25  0.004286  (-0.064007  0.013685 -0.001377)
 56:   1572.85   0.011783   59.55  0.002338  ( 0.015684 -0.000993 -0.045726)
 57:   1579.00   0.055687  281.42  0.011006  ( 0.077305  0.036466  0.060826)
 58:   1648.73   0.029161  147.37  0.005520  (-0.067618  0.028365  0.011947)
 59:   1666.47   0.009291   46.95  0.001740  (-0.015395 -0.038444 -0.004981)
 60:   1760.65   0.030368  153.47  0.005383  ( 0.021947  0.000434 -0.070005)
 61:   1797.93   0.092781  468.88  0.016104  (-0.095896 -0.003170 -0.083053)
 62:   1842.24   0.062825  317.49  0.010642  (-0.087886 -0.053404 -0.008131)
 63:   3103.61   0.001093    5.52  0.000110  ( 0.001595  0.010282  0.001265)
 64:   3124.57   0.002277   11.51  0.000227  (-0.014708  0.003288 -0.000511)
 65:   3129.05   0.000302    1.53  0.000030  (-0.001096  0.001754 -0.005082)
 66:   3167.90   0.000120    0.60  0.000012  (-0.002897 -0.000288  0.001820)
 67:   3194.75   0.000584    2.95  0.000057  (-0.002184 -0.006516 -0.003137)
 68:   3202.50   0.062244  314.56  0.006065  ( 0.064965  0.014730  0.040346)
 69:   3207.50   0.067161  339.40  0.006534  (-0.067132 -0.014555 -0.042610)
 70:   3440.58   0.014145   71.48  0.001283  (-0.021815 -0.021910  0.018084)
 71:   3544.50   0.021182  107.05  0.001865  (-0.025303  0.034946 -0.001858)
 72:   3635.79   0.005886   29.75  0.000505  ( 0.016816  0.014385 -0.003937)
 73:   3689.39   0.013796   69.72  0.001167  ( 0.031967 -0.004173 -0.011296)
 74:   3796.80   0.025762  130.19  0.002117  ( 0.008696 -0.044088 -0.009903)

--------------------------
THERMOCHEMISTRY AT 298.15K
--------------------------

Temperature         ... 298.15 K
Pressure            ... 1.00 atm
Total Mass          ... 190.18 AMU

Throughout the following assumptions are being made:
  (1) The electronic state is orbitally nondegenerate
  (2) There are no thermally accessible electronically excited states
  (3) Hindered rotations indicated by low frequency modes are not
      treated as such but are treated as vibrations and this may
      cause some error
  (4) All equations used are the standard statistical mechanics
      equations for an ideal gas
  (5) All vibrations are strictly harmonic

freq.      44.73  E(vib)   ...       0.53
freq.      54.97  E(vib)   ...       0.52
freq.      69.94  E(vib)   ...       0.50
freq.      95.61  E(vib)   ...       0.47
freq.     122.65  E(vib)   ...       0.43
freq.     139.49  E(vib)   ...       0.42
freq.     198.17  E(vib)   ...       0.35
freq.     207.69  E(vib)   ...       0.34
freq.     231.71  E(vib)   ...       0.32
freq.     266.64  E(vib)   ...       0.29
freq.     283.16  E(vib)   ...       0.28
freq.     304.83  E(vib)   ...       0.26
freq.     357.24  E(vib)   ...       0.22
freq.     369.76  E(vib)   ...       0.21
freq.     436.77  E(vib)   ...       0.17
freq.     476.17  E(vib)   ...       0.15
freq.     503.40  E(vib)   ...       0.14
freq.     520.22  E(vib)   ...       0.13
freq.     583.20  E(vib)   ...       0.11
freq.     614.31  E(vib)   ...       0.10
freq.     669.54  E(vib)   ...       0.08
freq.     674.61  E(vib)   ...       0.08
freq.     734.33  E(vib)   ...       0.06
freq.     771.89  E(vib)   ...       0.05
freq.     809.62  E(vib)   ...       0.05
freq.     851.51  E(vib)   ...       0.04
freq.     878.65  E(vib)   ...       0.04
freq.     905.59  E(vib)   ...       0.03
freq.     917.18  E(vib)   ...       0.03
freq.     977.94  E(vib)   ...       0.03
freq.    1029.22  E(vib)   ...       0.02
freq.    1048.73  E(vib)   ...       0.02
freq.    1060.59  E(vib)   ...       0.02
freq.    1122.12  E(vib)   ...       0.01
freq.    1134.14  E(vib)   ...       0.01
freq.    1149.09  E(vib)   ...       0.01
freq.    1206.85  E(vib)   ...       0.01
freq.    1242.74  E(vib)   ...       0.01
freq.    1275.19  E(vib)   ...       0.01
freq.    1298.34  E(vib)   ...       0.01
freq.    1318.07  E(vib)   ...       0.01
freq.    1339.57  E(vib)   ...       0.01
freq.    1349.37  E(vib)   ...       0.01
freq.    1388.14  E(vib)   ...       0.00
freq.    1412.88  E(vib)   ...       0.00
freq.    1450.81  E(vib)   ...       0.00
freq.    1471.89  E(vib)   ...       0.00
freq.    1489.89  E(vib)   ...       0.00
freq.    1505.06  E(vib)   ...       0.00
freq.    1559.53  E(vib)   ...       0.00
freq.    1572.85  E(vib)   ...       0.00
freq.    1579.00  E(vib)   ...       0.00
freq.    1648.73  E(vib)   ...       0.00
freq.    1666.47  E(vib)   ...       0.00
freq.    1760.65  E(vib)   ...       0.00
freq.    1797.93  E(vib)   ...       0.00
freq.    1842.24  E(vib)   ...       0.00
freq.    3103.61  E(vib)   ...       0.00
freq.    3124.57  E(vib)   ...       0.00
freq.    3129.05  E(vib)   ...       0.00
freq.    3167.90  E(vib)   ...       0.00
freq.    3194.75  E(vib)   ...       0.00
freq.    3202.50  E(vib)   ...       0.00
freq.    3207.50  E(vib)   ...       0.00
freq.    3440.58  E(vib)   ...       0.00
freq.    3544.50  E(vib)   ...       0.00
freq.    3635.79  E(vib)   ...       0.00
freq.    3689.39  E(vib)   ...       0.00
freq.    3796.80  E(vib)   ...       0.00

------------
INNER ENERGY
------------

The inner energy is: U= E(el) + E(ZPE) + E(vib) + E(rot) + E(trans)
    E(el)   - is the total energy from the electronic structure calculation
              = E(kin-el) + E(nuc-el) + E(el-el) + E(nuc-nuc)
    E(ZPE)  - the the zero temperature vibrational energy from the frequency calculation
    E(vib)  - the the finite temperature correction to E(ZPE) due to population
              of excited vibrational states
    E(rot)  - is the rotational thermal energy
    E(trans)- is the translational thermal energy

Summary of contributions to the inner energy U:
Electronic energy                ...   -701.34439846 Eh
Zero point energy                ...      0.20965649 Eh     131.56 kcal/mol
Thermal vibrational correction   ...      0.01054526 Eh       6.62 kcal/mol
Thermal rotational correction    ...      0.00141627 Eh       0.89 kcal/mol
Thermal translational correction ...      0.00141627 Eh       0.89 kcal/mol
-----------------------------------------------------------------------
Total thermal energy                   -701.12136417 Eh

Summary of corrections to the electronic energy:
(perhaps to be used in another calculation)
Total thermal correction                  0.01337780 Eh       8.39 kcal/mol
Non-thermal (ZPE) correction              0.20965649 Eh     131.56 kcal/mol
-----------------------------------------------------------------------
Total correction                          0.22303429 Eh     139.96 kcal/mol

--------
ENTHALPY
--------

The enthalpy is H = U + kB*T
                kB is Boltzmann's constant
Total free energy                 ...   -701.12136417 Eh
Thermal Enthalpy correction       ...      0.00094421 Eh       0.59 kcal/mol
-----------------------------------------------------------------------
Total Enthalpy                    ...   -701.12041996 Eh

Note: Only C1 symmetry has been detected, increase convergence thresholds
      if your molecule has a higher symmetry. Symmetry factor of 1.0 is
      used for the rotational entropy correction.

Note: Rotational entropy computed according to Herzberg
Infrared and Raman Spectra, Chapter V,1, Van Nostrand Reinhold, 1945
Point Group:  C1, Symmetry Number:   1
Rotational constants in cm-1:     0.044469     0.018678     0.014948

Vibrational entropy computed according to the QRRHO of S. Grimme
Chem.Eur.J. 2012 18 9955

-------
ENTROPY
-------

The entropy contributions are T*S = T*(S(el)+S(vib)+S(rot)+S(trans))
     S(el)   - electronic entropy
     S(vib)  - vibrational entropy
     S(rot)  - rotational entropy
     S(trans)- translational entropy
The entropies will be listed as multiplied by the temperature to get
units of energy

Electronic entropy                ...      0.00000000 Eh      0.00 kcal/mol
Vibrational entropy               ...      0.01848621 Eh     11.60 kcal/mol
Rotational entropy                ...      0.01484378 Eh      9.31 kcal/mol
Translational entropy             ...      0.01978162 Eh     12.41 kcal/mol
-----------------------------------------------------------------------

                             ****ORCA TERMINATED NORMALLY****
TOTAL RUN TIME: 0 days 2 hours 33 minutes 34 seconds 928 msec
