                         Program Version 5.0.2 -  RELEASE  -
|  1> # GGG-H_tt_018 (old 078)
|  2> ! wB97X-D3BJ Opt Freq def2-TZVPP def2/J RIJCOSX VeryTightSCF
|  3> ! PAL8 defgrid3 VeryTightOpt
|  4>
|  5> %maxcore 4096
|  6>
|  7> %geom
|  8>   MaxIter 300
|  9>   # MaxStep 0.1
| 10>   Calc_Hess true
| 11>   Recalc_Hess 10
| 12> end
| 13>
| 14> %chelpg
| 15>   grid 0.1
| 16>   rmax 3.0
| 17> end
| 18>
| 19> * xyz 1 1
| 20>  N   +0.376488   +2.359621   +2.583623
| 21>  H   +0.384660   +3.178311   +1.976032
| 22>  C   +1.050600   +2.439734   +3.866700
| 23>  C   +2.509845   +1.969226   +3.813851
| 24>  H   +1.008650   +3.468036   +4.253167
| 25>  H   +0.531319   +1.777744   +4.582799
| 26>  O   +2.961210   +1.110519   +3.069644
| 27>  C   -0.046228   +1.179590   +2.086613
| 28>  C   -0.610799   +1.160290   +0.650308
| 29>  O   +0.059721   +0.116701   +2.727089
| 30>  N   +0.000000   +0.000000   +0.000000
| 31>  H   -0.372679   +2.078092   +0.092129
| 32>  H   -1.703559   +1.027825   +0.677645
| 33>  H   -0.481509   -0.889508   +0.128859
| 34>  C   +1.373676   +0.000000   +0.000000
| 35>  C   +2.049022   -1.337584   +0.335021
| 36>  O   +2.040501   +1.025857   +0.000000
| 37>  H   +3.043343   -1.401546   -0.127729
| 38>  H   +1.453376   -2.233421   +0.101375
| 39>  O   +3.238038   +2.597554   +4.737816
| 40>  H   +4.151994   +2.236899   +4.718067
| 41>  N   +2.210390   -1.247869   +1.835094
| 42>  H   +2.756478   -0.391188   +2.114512
| 43>  H   +1.270725   -1.038502   +2.284575
| 44>  H   +2.639083   -2.085986   +2.251525
| 45> *
| 46>
| 47>                          ****END OF INPUT****
 Total Charge           Charge          ....    1
 Multiplicity           Mult            ....    1
 Number of Electrons    NEL             ....  100
Dispersion correction           -0.046034690
FINAL SINGLE POINT ENERGY      -701.348024229150
Dispersion correction            ... done
Dispersion correction in the Hessian             ... done   (      0.6 sec)
Dispersion correction           -0.046157178
FINAL SINGLE POINT ENERGY      -701.351653512492
Dispersion correction            ... done
Dispersion correction           -0.046069177
FINAL SINGLE POINT ENERGY      -701.351860061988
FINAL SINGLE POINT ENERGY      -701.352087222430
FINAL SINGLE POINT ENERGY      -701.352200430709
FINAL SINGLE POINT ENERGY      -701.352225887761
FINAL SINGLE POINT ENERGY      -701.352233505651
FINAL SINGLE POINT ENERGY      -701.352237037258
FINAL SINGLE POINT ENERGY      -701.352237868775
FINAL SINGLE POINT ENERGY      -701.352238157663
FINAL SINGLE POINT ENERGY      -701.352238333073
Dispersion correction            ... done
Dispersion correction in the Hessian             ... done   (      0.6 sec)
Dispersion correction           -0.045931405
FINAL SINGLE POINT ENERGY      -701.352238604503
Dispersion correction            ... done
                    ***********************HURRAY********************

CARTESIAN COORDINATES (ANGSTROEM)
---------------------------------
  N      0.375232    2.403311    2.563305
  H      0.333103    3.201822    1.953184
  C      1.022903    2.541576    3.846377
  C      2.439890    1.985032    3.877332
  H      1.050212    3.592277    4.130451
  H      0.455970    2.008887    4.613003
  O      2.945337    1.276277    3.040909
  C      0.019099    1.206510    2.086284
  C     -0.583885    1.154609    0.675703
  O      0.182951    0.165135    2.724454
  N     -0.052001   -0.037099    0.031498
  H     -0.336311    2.039365    0.092712
  H     -1.667965    1.072051    0.750154
  H     -0.521350   -0.895341    0.269946
  C      1.309312   -0.078538   -0.034612
  C      1.977107   -1.410649    0.305550
  O      2.005631    0.905655   -0.137151
  H      2.872272   -1.558145   -0.293350
  H      1.323547   -2.279263    0.248032
  O      3.054894    2.370568    4.991761
  H      3.946463    1.996488    5.008870
  N      2.376930   -1.206892    1.740509
  H      2.988204   -0.384258    1.831925
  H      1.538777   -0.947452    2.302331
  H      2.838021   -2.021531    2.139538

 Multiplicity           Mult            ....    1
 Number of Electrons    NEL             ....  100
 Basis Dimension        Dim             ....  571

ORBITAL ENERGIES
----------------

  NO   OCC          E(Eh)            E(eV)
   0   2.0000     -19.400777      -527.9220
   1   2.0000     -19.350253      -526.5472
   2   2.0000     -19.342328      -526.3315
   3   2.0000     -19.338016      -526.2142
   4   2.0000     -14.685060      -399.6008
   5   2.0000     -14.595739      -397.1703
   6   2.0000     -14.589001      -396.9869
   7   2.0000     -10.554772      -287.2099
   8   2.0000     -10.536816      -286.7213
   9   2.0000     -10.532661      -286.6083
  10   2.0000     -10.502014      -285.7743
  11   2.0000     -10.465772      -284.7881
  12   2.0000     -10.464390      -284.7505
  13   2.0000      -1.389718       -37.8161
  14   2.0000      -1.349635       -36.7254
  15   2.0000      -1.330398       -36.2020
  16   2.0000      -1.296698       -35.2849
  17   2.0000      -1.288285       -35.0560
  18   2.0000      -1.219475       -33.1836
  19   2.0000      -1.215664       -33.0799
  20   2.0000      -1.055919       -28.7330
  21   2.0000      -1.033938       -28.1349
  22   2.0000      -0.986307       -26.8388
  23   2.0000      -0.899647       -24.4806
  24   2.0000      -0.882419       -24.0119
  25   2.0000      -0.863592       -23.4995
  26   2.0000      -0.856220       -23.2989
  27   2.0000      -0.844582       -22.9822
  28   2.0000      -0.803693       -21.8696
  29   2.0000      -0.790858       -21.5203
  30   2.0000      -0.773749       -21.0548
  31   2.0000      -0.770723       -20.9724
  32   2.0000      -0.748193       -20.3594
  33   2.0000      -0.740393       -20.1471
  34   2.0000      -0.734108       -19.9761
  35   2.0000      -0.721091       -19.6219
  36   2.0000      -0.702961       -19.1285
  37   2.0000      -0.687274       -18.7017
  38   2.0000      -0.683781       -18.6066
  39   2.0000      -0.671927       -18.2841
  40   2.0000      -0.653325       -17.7779
  41   2.0000      -0.643576       -17.5126
  42   2.0000      -0.639363       -17.3979
  43   2.0000      -0.625623       -17.0241
  44   2.0000      -0.577640       -15.7184
  45   2.0000      -0.551109       -14.9964
  46   2.0000      -0.538999       -14.6669
  47   2.0000      -0.530941       -14.4477
  48   2.0000      -0.524698       -14.2778
  49   2.0000      -0.508644       -13.8409
  50   0.0000      -0.083402        -2.2695
  51   0.0000      -0.053887        -1.4663
  52   0.0000      -0.047891        -1.3032
  53   0.0000      -0.042633        -1.1601
  54   0.0000      -0.016899        -0.4598

MULLIKEN ATOMIC CHARGES
-----------------------
   0 N :   -0.158653
   1 H :    0.194370
   2 C :   -0.070880
   3 C :    0.338727
   4 H :    0.153490
   5 H :    0.145564
   6 O :   -0.383717
   7 C :    0.304561
   8 C :   -0.095067
   9 O :   -0.460836
  10 N :   -0.156536
  11 H :    0.128341
  12 H :    0.144792
  13 H :    0.181679
  14 C :    0.166931
  15 C :   -0.139957
  16 O :   -0.291840
  17 H :    0.171715
  18 H :    0.149385
  19 O :   -0.236685
  20 H :    0.243111
  21 N :   -0.056367
  22 H :    0.254840
  23 H :    0.242731
  24 H :    0.230302
Sum of atomic charges:    1.0000000

LOEWDIN ATOMIC CHARGES
----------------------
   0 N :    0.353986
   1 H :   -0.005349
   2 C :   -0.027517
   3 C :   -0.417824
   4 H :    0.043617
   5 H :    0.048284
   6 O :    0.092607
   7 C :   -0.368242
   8 C :   -0.022082
   9 O :    0.074166
  10 N :    0.322635
  11 H :    0.033509
  12 H :    0.039371
  13 H :   -0.020635
  14 C :   -0.402550
  15 C :    0.036849
  16 O :    0.138232
  17 H :    0.039726
  18 H :    0.028706
  19 O :    0.396029
  20 H :   -0.074721
  21 N :    0.602896
  22 H :    0.039202
  23 H :    0.006756
  24 H :    0.042348

  Mayer bond orders larger than 0.100000
B(  0-N ,  1-H ) :   0.9596 B(  0-N ,  2-C ) :   0.9236 B(  0-N ,  7-C ) :   1.3121
B(  2-C ,  3-C ) :   0.9357 B(  2-C ,  4-H ) :   0.9759 B(  2-C ,  5-H ) :   0.9663
B(  3-C ,  6-O ) :   1.9497 B(  3-C , 19-O ) :   1.2948 B(  7-C ,  8-C ) :   0.9161
B(  7-C ,  9-O ) :   1.8011 B(  8-C , 10-N ) :   0.9337 B(  8-C , 11-H ) :   0.9995
B(  8-C , 12-H ) :   0.9890 B(  9-O , 23-H ) :   0.1170 B( 10-N , 13-H ) :   0.9682
B( 10-N , 14-C ) :   1.2429 B( 14-C , 15-C ) :   0.9421 B( 14-C , 16-O ) :   2.0566
B( 15-C , 17-H ) :   0.9864 B( 15-C , 18-H ) :   0.9968 B( 15-C , 21-N ) :   0.8753
B( 19-O , 20-H ) :   0.9476 B( 21-N , 22-H ) :   0.8995 B( 21-N , 23-H ) :   0.8761
B( 21-N , 24-H ) :   0.9384

Dispersion correction           -0.045930976
FINAL SINGLE POINT ENERGY      -701.352238604802

DIPOLE MOMENT
-------------
                                X             Y             Z
Electronic contribution:      1.51862       2.46164       1.13197
Nuclear contribution   :     -1.33824      -4.13911      -1.02588
                        -----------------------------------------
Total Dipole Moment    :      0.18038      -1.67746       0.10609
                        -----------------------------------------
Magnitude (a.u.)       :      1.69047
Magnitude (Debye)      :      4.29682

Dispersion correction in the Hessian             ... done   (      0.6 sec)

VIBRATIONAL FREQUENCIES
-----------------------

Scaling factor for frequencies =  1.000000000  (already applied!)

   0:         0.00 cm**-1
   1:         0.00 cm**-1
   2:         0.00 cm**-1
   3:         0.00 cm**-1
   4:         0.00 cm**-1
   5:         0.00 cm**-1
   6:        43.38 cm**-1
   7:        57.95 cm**-1
   8:        84.49 cm**-1
   9:        87.79 cm**-1
  10:       125.51 cm**-1
  11:       144.29 cm**-1
  12:       202.10 cm**-1
  13:       229.42 cm**-1
  14:       270.18 cm**-1
  15:       280.63 cm**-1
  16:       294.48 cm**-1
  17:       318.08 cm**-1
  18:       344.97 cm**-1
  19:       396.44 cm**-1
  20:       434.03 cm**-1
  21:       493.61 cm**-1
  22:       513.30 cm**-1
  23:       533.31 cm**-1
  24:       587.13 cm**-1
  25:       612.02 cm**-1
  26:       660.19 cm**-1
  27:       683.76 cm**-1
  28:       711.38 cm**-1
  29:       756.31 cm**-1
  30:       796.93 cm**-1
  31:       873.75 cm**-1
  32:       875.44 cm**-1
  33:       897.70 cm**-1
  34:       916.59 cm**-1
  35:       982.46 cm**-1
  36:      1047.72 cm**-1
  37:      1057.80 cm**-1
  38:      1061.33 cm**-1
  39:      1116.11 cm**-1
  40:      1137.91 cm**-1
  41:      1148.73 cm**-1
  42:      1200.24 cm**-1
  43:      1261.09 cm**-1
  44:      1286.16 cm**-1
  45:      1298.97 cm**-1
  46:      1319.72 cm**-1
  47:      1330.63 cm**-1
  48:      1344.23 cm**-1
  49:      1404.42 cm**-1
  50:      1421.65 cm**-1
  51:      1450.03 cm**-1
  52:      1468.48 cm**-1
  53:      1473.06 cm**-1
  54:      1506.43 cm**-1
  55:      1553.59 cm**-1
  56:      1562.31 cm**-1
  57:      1605.38 cm**-1
  58:      1635.56 cm**-1
  59:      1665.41 cm**-1
  60:      1734.92 cm**-1
  61:      1818.31 cm**-1
  62:      1838.54 cm**-1
  63:      3107.38 cm**-1
  64:      3123.96 cm**-1
  65:      3130.36 cm**-1
  66:      3149.41 cm**-1
  67:      3171.58 cm**-1
  68:      3182.23 cm**-1
  69:      3204.29 cm**-1
  70:      3387.65 cm**-1
  71:      3551.00 cm**-1
  72:      3659.50 cm**-1
  73:      3677.72 cm**-1
  74:      3801.56 cm**-1

IR SPECTRUM
-----------

 Mode   freq       eps      Int      T**2         TX        TY        TZ
       cm**-1   L/(mol*cm) km/mol    a.u.
----------------------------------------------------------------------------
  6:     43.38   0.000060    0.30  0.000431  ( 0.002256  0.008704  0.018724)
  7:     57.95   0.000174    0.88  0.000937  ( 0.026037 -0.005856  0.014986)
  8:     84.49   0.001419    7.17  0.005240  ( 0.005390  0.002513 -0.072144)
  9:     87.79   0.001388    7.01  0.004934  (-0.002381  0.029473  0.063713)
 10:    125.51   0.003757   18.98  0.009340  ( 0.025804  0.060764  0.070585)
 11:    144.29   0.004250   21.48  0.009191  ( 0.082823  0.042615  0.022712)
 12:    202.10   0.007799   39.41  0.012043  (-0.058554  0.043495  0.081989)
 13:    229.42   0.005830   29.46  0.007929  ( 0.049888 -0.066798 -0.031282)
 14:    270.18   0.002196   11.10  0.002537  ( 0.013219 -0.036734  0.031823)
 15:    280.63   0.004254   21.50  0.004731  (-0.056945 -0.009420 -0.037406)
 16:    294.48   0.004752   24.01  0.005035  ( 0.051622 -0.039769  0.028090)
 17:    318.08   0.000889    4.49  0.000872  (-0.009812  0.022906 -0.015845)
 18:    344.97   0.000681    3.44  0.000616  ( 0.020130  0.014525 -0.000478)
 19:    396.44   0.007760   39.22  0.006108  (-0.041557  0.055166  0.036581)
 20:    434.03   0.004722   23.86  0.003395  ( 0.018011 -0.046965 -0.029412)
 21:    493.61   0.010180   51.45  0.006436  ( 0.077912 -0.012220  0.014702)
 22:    513.30   0.006065   30.65  0.003687  ( 0.024127 -0.053525  0.015497)
 23:    533.31   0.006020   30.42  0.003522  ( 0.016227 -0.012798 -0.055635)
 24:    587.13   0.017261   87.23  0.009174  (-0.068361 -0.020642 -0.063837)
 25:    612.02   0.003861   19.51  0.001969  ( 0.019597 -0.031397 -0.024476)
 26:    660.19   0.020889  105.56  0.009874  (-0.056486 -0.076219  0.029563)
 27:    683.76   0.011492   58.08  0.005245  (-0.046270 -0.018798 -0.052447)
 28:    711.38   0.002889   14.60  0.001268  (-0.023076  0.024947 -0.010615)
 29:    756.31   0.003135   15.84  0.001294  ( 0.014639 -0.012504  0.030381)
 30:    796.93   0.002936   14.84  0.001150  ( 0.008107  0.003719  0.032713)
 31:    873.75   0.001177    5.95  0.000420  (-0.002795  0.018652  0.008045)
 32:    875.44   0.002447   12.37  0.000872  (-0.006703 -0.015523 -0.024215)
 33:    897.70   0.003766   19.03  0.001309  ( 0.005379 -0.005654 -0.035329)
 34:    916.59   0.001466    7.41  0.000499  (-0.019604 -0.004091 -0.009911)
 35:    982.46   0.001283    6.49  0.000408  (-0.016819  0.010516 -0.003766)
 36:   1047.72   0.001528    7.72  0.000455  ( 0.018027 -0.008827  0.007231)
 37:   1057.80   0.002869   14.50  0.000846  (-0.002325  0.024021 -0.016244)
 38:   1061.33   0.002393   12.09  0.000704  ( 0.026129 -0.003613 -0.002809)
 39:   1116.11   0.002043   10.33  0.000571  (-0.023623  0.001468  0.003333)
 40:   1137.91   0.009047   45.72  0.002481  (-0.024055  0.043093  0.006740)
 41:   1148.73   0.005560   28.10  0.001511  (-0.017858  0.021295  0.027169)
 42:   1200.24   0.055581  280.88  0.014451  ( 0.068555  0.034770  0.092424)
 43:   1261.09   0.002084   10.53  0.000516  ( 0.006812  0.019900  0.008556)
 44:   1286.16   0.005031   25.42  0.001221  ( 0.029530 -0.016742  0.008262)
 45:   1298.97   0.000948    4.79  0.000228  ( 0.006963 -0.008811  0.010077)
 46:   1319.72   0.008527   43.09  0.002016  ( 0.003065  0.019125  0.040512)
 47:   1330.63   0.006566   33.18  0.001540  ( 0.039220 -0.001166  0.000505)
 48:   1344.23   0.004027   20.35  0.000935  (-0.013959 -0.013980 -0.023336)
 49:   1404.42   0.001812    9.16  0.000403  (-0.003596  0.009941 -0.017057)
 50:   1421.65   0.000116    0.59  0.000026  ( 0.003980  0.002775  0.001404)
 51:   1450.03   0.009567   48.35  0.002059  (-0.044703 -0.002185 -0.007478)
 52:   1468.48   0.007818   39.51  0.001661  ( 0.014358 -0.005198  0.037792)
 53:   1473.06   0.002674   13.51  0.000566  ( 0.003079 -0.015697  0.017624)
 54:   1506.43   0.002873   14.52  0.000595  ( 0.013600 -0.019332 -0.006041)
 55:   1553.59   0.028726  145.17  0.005770  ( 0.073813 -0.016847 -0.006155)
 56:   1562.31   0.019820  100.16  0.003959  ( 0.022151  0.006150  0.058569)
 57:   1605.38   0.053945  272.62  0.010486  ( 0.033496  0.072426  0.064177)
 58:   1635.56   0.033405  168.82  0.006374  ( 0.000889 -0.079327  0.008953)
 59:   1665.41   0.040779  206.08  0.007641  (-0.049693  0.068768  0.021042)
 60:   1734.92   0.023432  118.42  0.004215  ( 0.008726  0.059765 -0.023808)
 61:   1818.31   0.046631  235.65  0.008003  (-0.052539 -0.072125 -0.006370)
 62:   1838.54   0.069317  350.30  0.011765  (-0.031725  0.055828  0.087420)
 63:   3107.38   0.000925    4.67  0.000093  ( 0.006880  0.004027  0.005412)
 64:   3123.96   0.000244    1.23  0.000024  (-0.000957  0.003978  0.002769)
 65:   3130.36   0.003862   19.52  0.000385  (-0.008343  0.014693  0.009974)
 66:   3149.41   0.082541  417.13  0.008179  ( 0.063037 -0.050627 -0.040520)
 67:   3171.58   0.000113    0.57  0.000011  (-0.000916  0.003102 -0.000815)
 68:   3182.23   0.000101    0.51  0.000010  (-0.001790  0.002009 -0.001639)
 69:   3204.29   0.000676    3.42  0.000066  (-0.004088  0.005257  0.004640)
 70:   3387.65   0.032548  164.48  0.002998  ( 0.028866  0.039446  0.024677)
 71:   3551.00   0.024627  124.45  0.002164  (-0.017414  0.042600 -0.006800)
 72:   3659.50   0.009462   47.81  0.000807  (-0.020303 -0.019753  0.002109)
 73:   3677.72   0.014750   74.54  0.001252  (-0.000588  0.032876 -0.013056)
 74:   3801.56   0.025271  127.71  0.002074  ( 0.041526 -0.005844  0.017772)

--------------------------
THERMOCHEMISTRY AT 298.15K
--------------------------

Temperature         ... 298.15 K
Pressure            ... 1.00 atm
Total Mass          ... 190.18 AMU

Throughout the following assumptions are being made:
  (1) The electronic state is orbitally nondegenerate
  (2) There are no thermally accessible electronically excited states
  (3) Hindered rotations indicated by low frequency modes are not
      treated as such but are treated as vibrations and this may
      cause some error
  (4) All equations used are the standard statistical mechanics
      equations for an ideal gas
  (5) All vibrations are strictly harmonic

freq.      43.38  E(vib)   ...       0.53
freq.      57.95  E(vib)   ...       0.51
freq.      84.49  E(vib)   ...       0.48
freq.      87.79  E(vib)   ...       0.48
freq.     125.51  E(vib)   ...       0.43
freq.     144.29  E(vib)   ...       0.41
freq.     202.10  E(vib)   ...       0.35
freq.     229.42  E(vib)   ...       0.32
freq.     270.18  E(vib)   ...       0.29
freq.     280.63  E(vib)   ...       0.28
freq.     294.48  E(vib)   ...       0.27
freq.     318.08  E(vib)   ...       0.25
freq.     344.97  E(vib)   ...       0.23
freq.     396.44  E(vib)   ...       0.20
freq.     434.03  E(vib)   ...       0.17
freq.     493.61  E(vib)   ...       0.14
freq.     513.30  E(vib)   ...       0.13
freq.     533.31  E(vib)   ...       0.13
freq.     587.13  E(vib)   ...       0.10
freq.     612.02  E(vib)   ...       0.10
freq.     660.19  E(vib)   ...       0.08
freq.     683.76  E(vib)   ...       0.07
freq.     711.38  E(vib)   ...       0.07
freq.     756.31  E(vib)   ...       0.06
freq.     796.93  E(vib)   ...       0.05
freq.     873.75  E(vib)   ...       0.04
freq.     875.44  E(vib)   ...       0.04
freq.     897.70  E(vib)   ...       0.03
freq.     916.59  E(vib)   ...       0.03
freq.     982.46  E(vib)   ...       0.02
freq.    1047.72  E(vib)   ...       0.02
freq.    1057.80  E(vib)   ...       0.02
freq.    1061.33  E(vib)   ...       0.02
freq.    1116.11  E(vib)   ...       0.01
freq.    1137.91  E(vib)   ...       0.01
freq.    1148.73  E(vib)   ...       0.01
freq.    1200.24  E(vib)   ...       0.01
freq.    1261.09  E(vib)   ...       0.01
freq.    1286.16  E(vib)   ...       0.01
freq.    1298.97  E(vib)   ...       0.01
freq.    1319.72  E(vib)   ...       0.01
freq.    1330.63  E(vib)   ...       0.01
freq.    1344.23  E(vib)   ...       0.01
freq.    1404.42  E(vib)   ...       0.00
freq.    1421.65  E(vib)   ...       0.00
freq.    1450.03  E(vib)   ...       0.00
freq.    1468.48  E(vib)   ...       0.00
freq.    1473.06  E(vib)   ...       0.00
freq.    1506.43  E(vib)   ...       0.00
freq.    1553.59  E(vib)   ...       0.00
freq.    1562.31  E(vib)   ...       0.00
freq.    1605.38  E(vib)   ...       0.00
freq.    1635.56  E(vib)   ...       0.00
freq.    1665.41  E(vib)   ...       0.00
freq.    1734.92  E(vib)   ...       0.00
freq.    1818.31  E(vib)   ...       0.00
freq.    1838.54  E(vib)   ...       0.00
freq.    3107.38  E(vib)   ...       0.00
freq.    3123.96  E(vib)   ...       0.00
freq.    3130.36  E(vib)   ...       0.00
freq.    3149.41  E(vib)   ...       0.00
freq.    3171.58  E(vib)   ...       0.00
freq.    3182.23  E(vib)   ...       0.00
freq.    3204.29  E(vib)   ...       0.00
freq.    3387.65  E(vib)   ...       0.00
freq.    3551.00  E(vib)   ...       0.00
freq.    3659.50  E(vib)   ...       0.00
freq.    3677.72  E(vib)   ...       0.00
freq.    3801.56  E(vib)   ...       0.00

------------
INNER ENERGY
------------

The inner energy is: U= E(el) + E(ZPE) + E(vib) + E(rot) + E(trans)
    E(el)   - is the total energy from the electronic structure calculation
              = E(kin-el) + E(nuc-el) + E(el-el) + E(nuc-nuc)
    E(ZPE)  - the the zero temperature vibrational energy from the frequency calculation
    E(vib)  - the the finite temperature correction to E(ZPE) due to population
              of excited vibrational states
    E(rot)  - is the rotational thermal energy
    E(trans)- is the translational thermal energy

Summary of contributions to the inner energy U:
Electronic energy                ...   -701.35223860 Eh
Zero point energy                ...      0.20982607 Eh     131.67 kcal/mol
Thermal vibrational correction   ...      0.01034060 Eh       6.49 kcal/mol
Thermal rotational correction    ...      0.00141627 Eh       0.89 kcal/mol
Thermal translational correction ...      0.00141627 Eh       0.89 kcal/mol
-----------------------------------------------------------------------
Total thermal energy                   -701.12923940 Eh

Summary of corrections to the electronic energy:
(perhaps to be used in another calculation)
Total thermal correction                  0.01317314 Eh       8.27 kcal/mol
Non-thermal (ZPE) correction              0.20982607 Eh     131.67 kcal/mol
-----------------------------------------------------------------------
Total correction                          0.22299920 Eh     139.93 kcal/mol

--------
ENTHALPY
--------

The enthalpy is H = U + kB*T
                kB is Boltzmann's constant
Total free energy                 ...   -701.12923940 Eh
Thermal Enthalpy correction       ...      0.00094421 Eh       0.59 kcal/mol
-----------------------------------------------------------------------
Total Enthalpy                    ...   -701.12829519 Eh

Note: Only C1 symmetry has been detected, increase convergence thresholds
      if your molecule has a higher symmetry. Symmetry factor of 1.0 is
      used for the rotational entropy correction.

Note: Rotational entropy computed according to Herzberg
Infrared and Raman Spectra, Chapter V,1, Van Nostrand Reinhold, 1945
Point Group:  C1, Symmetry Number:   1
Rotational constants in cm-1:     0.042187     0.019975     0.016196

Vibrational entropy computed according to the QRRHO of S. Grimme
Chem.Eur.J. 2012 18 9955

-------
ENTROPY
-------

The entropy contributions are T*S = T*(S(el)+S(vib)+S(rot)+S(trans))
     S(el)   - electronic entropy
     S(vib)  - vibrational entropy
     S(rot)  - rotational entropy
     S(trans)- translational entropy
The entropies will be listed as multiplied by the temperature to get
units of energy

Electronic entropy                ...      0.00000000 Eh      0.00 kcal/mol
Vibrational entropy               ...      0.01802531 Eh     11.31 kcal/mol
Rotational entropy                ...      0.01479914 Eh      9.29 kcal/mol
Translational entropy             ...      0.01978162 Eh     12.41 kcal/mol
-----------------------------------------------------------------------

                             ****ORCA TERMINATED NORMALLY****
TOTAL RUN TIME: 0 days 2 hours 28 minutes 56 seconds 831 msec
