                         Program Version 5.0.2 -  RELEASE  -
|  1> # GGG-H_tt_019 (old 089)
|  2> ! wB97X-D3BJ Opt Freq def2-TZVPP def2/J RIJCOSX VeryTightSCF
|  3> ! PAL8 defgrid3 VeryTightOpt
|  4>
|  5> %maxcore 4096
|  6>
|  7> %geom
|  8>   MaxIter 300
|  9>   # MaxStep 0.1
| 10>   Calc_Hess true
| 11>   Recalc_Hess 10
| 12> end
| 13>
| 14> %chelpg
| 15>   grid 0.1
| 16>   rmax 3.0
| 17> end
| 18>
| 19> * xyz 1 1
| 20>  N   -2.477079   +0.107818   -1.824315
| 21>  H   -2.978688   -0.015418   -0.945685
| 22>  C   -2.650296   -0.910001   -2.834217
| 23>  C   -1.711953   -2.104527   -2.552142
| 24>  H   -3.699245   -1.251751   -2.864967
| 25>  H   -2.393259   -0.486898   -3.821125
| 26>  O   -1.001046   -2.179963   -1.562680
| 27>  C   -1.273750   +0.783229   -1.810408
| 28>  C   -0.781548   +1.181414   -0.408983
| 29>  O   -0.556139   +0.872985   -2.795653
| 30>  N   +0.000000   +0.000000   +0.000000
| 31>  H   -1.593754   +1.366427   +0.313608
| 32>  H   -0.112347   +2.050428   -0.459376
| 33>  H   -0.455297   -0.900510   -0.230216
| 34>  C   +1.334514   +0.000000   +0.000000
| 35>  C   +2.034672   -1.385310   +0.017375
| 36>  O   +2.081119   +0.995501   +0.000000
| 37>  H   +1.720548   -2.009662   -0.833019
| 38>  H   +1.843402   -1.929040   +0.954712
| 39>  O   -1.694217   -3.084713   -3.461838
| 40>  H   -2.295507   -2.891838   -4.209308
| 41>  N   +3.483147   -1.014506   -0.078654
| 42>  H   +3.361690   +0.086565   -0.035578
| 43>  H   +4.063933   -1.362737   +0.695898
| 44>  H   +3.921865   -1.287375   -0.969176
| 45> *
| 46>
| 47>                          ****END OF INPUT****
 Total Charge           Charge          ....    1
 Multiplicity           Mult            ....    1
 Number of Electrons    NEL             ....  100
Dispersion correction           -0.043246754
FINAL SINGLE POINT ENERGY      -701.333268929873
Dispersion correction            ... done
Dispersion correction in the Hessian             ... done   (      0.8 sec)
Dispersion correction           -0.043407050
FINAL SINGLE POINT ENERGY      -701.336881825622
Dispersion correction            ... done
Dispersion correction           -0.043437416
FINAL SINGLE POINT ENERGY      -701.336974877816
FINAL SINGLE POINT ENERGY      -701.337156529472
FINAL SINGLE POINT ENERGY      -701.337180001609
FINAL SINGLE POINT ENERGY      -701.337194573890
FINAL SINGLE POINT ENERGY      -701.337209311955
FINAL SINGLE POINT ENERGY      -701.337216857401
FINAL SINGLE POINT ENERGY      -701.337227433379
FINAL SINGLE POINT ENERGY      -701.337234008827
FINAL SINGLE POINT ENERGY      -701.337241853856
FINAL SINGLE POINT ENERGY      -701.337259653141
FINAL SINGLE POINT ENERGY      -701.337256613558
Dispersion correction           -0.043746369
FINAL SINGLE POINT ENERGY      -701.337257380418
Dispersion correction            ... done
Dispersion correction           -0.043747108
FINAL SINGLE POINT ENERGY      -701.337257458666
Dispersion correction            ... done
                    ***********************HURRAY********************

CARTESIAN COORDINATES (ANGSTROEM)
---------------------------------
  N     -2.453348    0.081479   -1.806210
  H     -2.966336   -0.026213   -0.948043
  C     -2.609806   -0.940112   -2.807928
  C     -1.609142   -2.078703   -2.576004
  H     -3.622971   -1.344721   -2.773924
  H     -2.443785   -0.516561   -3.799881
  O     -0.947311   -2.188488   -1.573557
  C     -1.251609    0.733367   -1.767434
  C     -0.806135    1.201951   -0.383497
  O     -0.506733    0.781355   -2.721074
  N     -0.022553    0.068335    0.119896
  H     -1.632187    1.413817    0.295322
  H     -0.159608    2.070628   -0.468429
  H     -0.480703   -0.831280    0.026706
  C      1.304934    0.045227   -0.000587
  C      1.957360   -1.348258    0.068533
  O      2.048136    1.005974   -0.152557
  H      1.546686   -2.009985   -0.693143
  H      1.833101   -1.801491    1.050096
  O     -1.504430   -2.979418   -3.551214
  H     -2.059155   -2.757787   -4.307529
  N      3.403554   -1.075260   -0.188077
  H      3.407161   -0.015194   -0.236854
  H      4.018384   -1.401108    0.553619
  H      3.727260   -1.457436   -1.073974

 Multiplicity           Mult            ....    1
 Number of Electrons    NEL             ....  100
 Basis Dimension        Dim             ....  571

ORBITAL ENERGIES
----------------

  NO   OCC          E(Eh)            E(eV)
   0   2.0000     -19.393362      -527.7202
   1   2.0000     -19.356171      -526.7082
   2   2.0000     -19.337070      -526.1884
   3   2.0000     -19.310165      -525.4563
   4   2.0000     -14.698431      -399.9646
   5   2.0000     -14.594270      -397.1303
   6   2.0000     -14.569842      -396.4656
   7   2.0000     -10.546816      -286.9935
   8   2.0000     -10.542825      -286.8848
   9   2.0000     -10.508854      -285.9605
  10   2.0000     -10.505531      -285.8700
  11   2.0000     -10.455860      -284.5184
  12   2.0000     -10.451678      -284.4046
  13   2.0000      -1.376584       -37.4588
  14   2.0000      -1.359185       -36.9853
  15   2.0000      -1.311917       -35.6991
  16   2.0000      -1.296649       -35.2836
  17   2.0000      -1.288793       -35.0698
  18   2.0000      -1.224822       -33.3291
  19   2.0000      -1.195409       -32.5287
  20   2.0000      -1.059628       -28.8339
  21   2.0000      -1.017905       -27.6986
  22   2.0000      -0.974785       -26.5253
  23   2.0000      -0.884586       -24.0708
  24   2.0000      -0.879981       -23.9455
  25   2.0000      -0.879104       -23.9216
  26   2.0000      -0.860245       -23.4085
  27   2.0000      -0.848458       -23.0877
  28   2.0000      -0.810039       -22.0423
  29   2.0000      -0.789302       -21.4780
  30   2.0000      -0.768271       -20.9057
  31   2.0000      -0.759542       -20.6682
  32   2.0000      -0.748168       -20.3587
  33   2.0000      -0.732670       -19.9370
  34   2.0000      -0.722552       -19.6616
  35   2.0000      -0.713210       -19.4074
  36   2.0000      -0.698557       -19.0087
  37   2.0000      -0.672600       -18.3024
  38   2.0000      -0.668539       -18.1919
  39   2.0000      -0.664279       -18.0759
  40   2.0000      -0.642882       -17.4937
  41   2.0000      -0.633620       -17.2417
  42   2.0000      -0.628349       -17.0982
  43   2.0000      -0.612097       -16.6560
  44   2.0000      -0.564937       -15.3727
  45   2.0000      -0.554324       -15.0839
  46   2.0000      -0.543121       -14.7791
  47   2.0000      -0.530243       -14.4286
  48   2.0000      -0.501795       -13.6545
  49   2.0000      -0.485654       -13.2153
  50   0.0000      -0.079005        -2.1498
  51   0.0000      -0.066724        -1.8157
  52   0.0000      -0.036111        -0.9826
  53   0.0000      -0.029988        -0.8160
  54   0.0000      -0.019809        -0.5390

MULLIKEN ATOMIC CHARGES
-----------------------
   0 N :   -0.204400
   1 H :    0.179561
   2 C :   -0.136682
   3 C :    0.366456
   4 H :    0.154529
   5 H :    0.139348
   6 O :   -0.388094
   7 C :    0.204618
   8 C :   -0.066274
   9 O :   -0.329959
  10 N :   -0.166565
  11 H :    0.136223
  12 H :    0.142602
  13 H :    0.187435
  14 C :    0.275132
  15 C :   -0.169388
  16 O :   -0.347004
  17 H :    0.174613
  18 H :    0.172622
  19 O :   -0.209705
  20 H :    0.229063
  21 N :   -0.049934
  22 H :    0.232205
  23 H :    0.235213
  24 H :    0.238387
Sum of atomic charges:    1.0000000

LOEWDIN ATOMIC CHARGES
----------------------
   0 N :    0.319351
   1 H :   -0.024023
   2 C :   -0.056025
   3 C :   -0.421059
   4 H :    0.037637
   5 H :    0.039031
   6 O :    0.097568
   7 C :   -0.389207
   8 C :   -0.007260
   9 O :    0.112939
  10 N :    0.343142
  11 H :    0.024546
  12 H :    0.041404
  13 H :   -0.019923
  14 C :   -0.373075
  15 C :    0.044598
  16 O :    0.137536
  17 H :    0.037166
  18 H :    0.037224
  19 O :    0.404052
  20 H :   -0.085269
  21 N :    0.602448
  22 H :    0.001889
  23 H :    0.045862
  24 H :    0.049448

  Mayer bond orders larger than 0.100000
B(  0-N ,  1-H ) :   0.9719 B(  0-N ,  2-C ) :   0.9509 B(  0-N ,  7-C ) :   1.1953
B(  2-C ,  3-C ) :   0.9362 B(  2-C ,  4-H ) :   0.9696 B(  2-C ,  5-H ) :   0.9744
B(  3-C ,  6-O ) :   1.9474 B(  3-C , 19-O ) :   1.2666 B(  7-C ,  8-C ) :   0.9292
B(  7-C ,  9-O ) :   2.0596 B(  8-C , 10-N ) :   0.8750 B(  8-C , 11-H ) :   0.9971
B(  8-C , 12-H ) :   0.9910 B( 10-N , 13-H ) :   0.9409 B( 10-N , 14-C ) :   1.3687
B( 14-C , 15-C ) :   0.9152 B( 14-C , 16-O ) :   1.8879 B( 15-C , 17-H ) :   0.9703
B( 15-C , 18-H ) :   0.9902 B( 15-C , 21-N ) :   0.8948 B( 16-O , 22-H ) :   0.1882
B( 19-O , 20-H ) :   0.9705 B( 21-N , 22-H ) :   0.8248 B( 21-N , 23-H ) :   0.9413
B( 21-N , 24-H ) :   0.9400

Dispersion correction           -0.043746302
FINAL SINGLE POINT ENERGY      -701.337257395114

DIPOLE MOMENT
-------------
                                X             Y             Z
Electronic contribution:     -1.36986       0.41802      -2.11248
Nuclear contribution   :      3.26846      -1.97063       3.53963
                        -----------------------------------------
Total Dipole Moment    :      1.89860      -1.55261       1.42715
                        -----------------------------------------
Magnitude (a.u.)       :      2.83761
Magnitude (Debye)      :      7.21264

Dispersion correction in the Hessian             ... done   (      0.7 sec)

VIBRATIONAL FREQUENCIES
-----------------------

Scaling factor for frequencies =  1.000000000  (already applied!)

   0:         0.00 cm**-1
   1:         0.00 cm**-1
   2:         0.00 cm**-1
   3:         0.00 cm**-1
   4:         0.00 cm**-1
   5:         0.00 cm**-1
   6:        19.46 cm**-1
   7:        41.51 cm**-1
   8:        60.21 cm**-1
   9:        80.24 cm**-1
  10:        83.78 cm**-1
  11:        98.58 cm**-1
  12:       139.30 cm**-1
  13:       191.53 cm**-1
  14:       257.58 cm**-1
  15:       288.15 cm**-1
  16:       299.72 cm**-1
  17:       347.16 cm**-1
  18:       356.00 cm**-1
  19:       413.34 cm**-1
  20:       471.69 cm**-1
  21:       482.94 cm**-1
  22:       498.80 cm**-1
  23:       531.02 cm**-1
  24:       580.55 cm**-1
  25:       585.58 cm**-1
  26:       654.25 cm**-1
  27:       665.27 cm**-1
  28:       712.03 cm**-1
  29:       754.26 cm**-1
  30:       806.38 cm**-1
  31:       874.78 cm**-1
  32:       886.32 cm**-1
  33:       920.32 cm**-1
  34:       931.18 cm**-1
  35:      1004.37 cm**-1
  36:      1026.60 cm**-1
  37:      1060.12 cm**-1
  38:      1081.29 cm**-1
  39:      1113.09 cm**-1
  40:      1119.22 cm**-1
  41:      1154.24 cm**-1
  42:      1209.38 cm**-1
  43:      1235.42 cm**-1
  44:      1291.68 cm**-1
  45:      1304.61 cm**-1
  46:      1314.59 cm**-1
  47:      1324.50 cm**-1
  48:      1333.38 cm**-1
  49:      1373.53 cm**-1
  50:      1397.42 cm**-1
  51:      1425.84 cm**-1
  52:      1442.37 cm**-1
  53:      1466.10 cm**-1
  54:      1501.25 cm**-1
  55:      1506.51 cm**-1
  56:      1554.12 cm**-1
  57:      1634.74 cm**-1
  58:      1649.12 cm**-1
  59:      1669.58 cm**-1
  60:      1792.65 cm**-1
  61:      1817.27 cm**-1
  62:      1842.87 cm**-1
  63:      2903.08 cm**-1
  64:      3101.59 cm**-1
  65:      3119.11 cm**-1
  66:      3127.75 cm**-1
  67:      3153.66 cm**-1
  68:      3191.17 cm**-1
  69:      3204.62 cm**-1
  70:      3516.52 cm**-1
  71:      3557.67 cm**-1
  72:      3578.64 cm**-1
  73:      3674.69 cm**-1
  74:      3840.43 cm**-1

IR SPECTRUM
-----------

 Mode   freq       eps      Int      T**2         TX        TY        TZ
       cm**-1   L/(mol*cm) km/mol    a.u.
----------------------------------------------------------------------------
  6:     19.46   0.001156    5.84  0.018534  ( 0.118250  0.027948  0.061400)
  7:     41.51   0.002700   13.65  0.020302  (-0.012860 -0.064636  0.126330)
  8:     60.21   0.001926    9.73  0.009983  ( 0.043701  0.081653  0.037492)
  9:     80.24   0.005258   26.57  0.020447  (-0.012013 -0.017343 -0.141428)
 10:     83.78   0.000283    1.43  0.001055  (-0.022766  0.020756  0.010273)
 11:     98.58   0.002748   13.89  0.008699  ( 0.087186 -0.031782 -0.009340)
 12:    139.30   0.002158   10.91  0.004834  ( 0.026286  0.063184  0.012293)
 13:    191.53   0.001763    8.91  0.002873  ( 0.012262 -0.050533 -0.012986)
 14:    257.58   0.002085   10.53  0.002526  ( 0.047263 -0.015670  0.006798)
 15:    288.15   0.002506   12.66  0.002713  (-0.015463 -0.049298  0.006633)
 16:    299.72   0.001234    6.23  0.001284  ( 0.014049 -0.028806  0.016038)
 17:    347.16   0.004723   23.87  0.004245  ( 0.003251  0.057853  0.029792)
 18:    356.00   0.015771   79.70  0.013824  (-0.101265  0.056802 -0.018531)
 19:    413.34   0.018835   95.19  0.014220  ( 0.104174 -0.056801 -0.011906)
 20:    471.69   0.002594   13.11  0.001716  ( 0.041281 -0.003430  0.000055)
 21:    482.94   0.010177   51.43  0.006576  (-0.049031 -0.063698  0.010717)
 22:    498.80   0.008900   44.98  0.005568  (-0.065567 -0.005951  0.035123)
 23:    531.02   0.018137   91.66  0.010658  ( 0.091676 -0.047404  0.002616)
 24:    580.55   0.002224   11.24  0.001195  ( 0.015230  0.029087 -0.010838)
 25:    585.58   0.002249   11.36  0.001198  (-0.018218 -0.016906  0.024094)
 26:    654.25   0.007869   39.77  0.003753  ( 0.054994 -0.017476  0.020577)
 27:    665.27   0.014376   72.65  0.006743  ( 0.010019  0.008947 -0.081013)
 28:    712.03   0.001713    8.66  0.000751  ( 0.004619 -0.002131  0.026924)
 29:    754.26   0.010453   52.82  0.004325  (-0.004879  0.000815  0.065576)
 30:    806.38   0.002604   13.16  0.001008  (-0.014755  0.014701 -0.023959)
 31:    874.78   0.001842    9.31  0.000657  (-0.022573  0.005250  0.010956)
 32:    886.32   0.001895    9.58  0.000667  (-0.016139  0.014962  0.013527)
 33:    920.32   0.005036   25.45  0.001708  ( 0.024551 -0.023254 -0.023756)
 34:    931.18   0.002311   11.68  0.000774  ( 0.002325 -0.005177 -0.027245)
 35:   1004.37   0.000479    2.42  0.000149  (-0.009254  0.007616 -0.002245)
 36:   1026.60   0.000704    3.56  0.000214  (-0.007628 -0.009613 -0.007959)
 37:   1060.12   0.002127   10.75  0.000626  ( 0.024818  0.002162 -0.002368)
 38:   1081.29   0.002879   14.55  0.000831  ( 0.019360 -0.021257 -0.002049)
 39:   1113.09   0.008373   42.31  0.002347  ( 0.032694 -0.034197  0.010447)
 40:   1119.22   0.013456   68.00  0.003752  (-0.041391  0.044686 -0.006459)
 41:   1154.24   0.001375    6.95  0.000372  ( 0.009854 -0.013673 -0.009363)
 42:   1209.38   0.001337    6.76  0.000345  ( 0.002869  0.006156  0.017286)
 43:   1235.42   0.018739   94.70  0.004733  (-0.058268 -0.024445 -0.027213)
 44:   1291.68   0.006208   31.37  0.001500  ( 0.005949  0.027932  0.026157)
 45:   1304.61   0.013465   68.05  0.003221  ( 0.033892  0.029902  0.034323)
 46:   1314.59   0.039024  197.21  0.009264  ( 0.001547  0.076132  0.058867)
 47:   1324.50   0.002933   14.82  0.000691  (-0.011032  0.023601 -0.003511)
 48:   1333.38   0.026620  134.53  0.006230  ( 0.007090 -0.048958 -0.061506)
 49:   1373.53   0.000512    2.59  0.000116  (-0.010279  0.001817 -0.002703)
 50:   1397.42   0.036237  183.13  0.008092  (-0.085437  0.028051 -0.002443)
 51:   1425.84   0.022979  116.13  0.005029  (-0.004413  0.061064  0.035791)
 52:   1442.37   0.060878  307.65  0.013171  (-0.112442 -0.022274  0.005640)
 53:   1466.10   0.003942   19.92  0.000839  ( 0.006296 -0.002021  0.028200)
 54:   1501.25   0.005728   28.95  0.001191  (-0.016965 -0.025107 -0.016507)
 55:   1506.51   0.008507   42.99  0.001762  (-0.038168  0.017453  0.000905)
 56:   1554.12   0.037894  191.50  0.007609  ( 0.070072  0.047298  0.021491)
 57:   1634.74   0.025015  126.42  0.004775  (-0.062779  0.021447 -0.019340)
 58:   1649.12   0.008460   42.75  0.001601  (-0.025004  0.028792  0.012112)
 59:   1669.58   0.006112   30.89  0.001142  ( 0.013440 -0.007817  0.030012)
 60:   1792.65   0.038365  193.88  0.006679  (-0.060789 -0.022075 -0.049960)
 61:   1817.27   0.067810  342.69  0.011644  ( 0.079340  0.041506 -0.060223)
 62:   1842.87   0.054397  274.90  0.009211  ( 0.064989  0.009070  0.070039)
 63:   2903.08   0.075966  383.90  0.008166  (-0.043978  0.078846 -0.003889)
 64:   3101.59   0.001896    9.58  0.000191  ( 0.004523  0.011540  0.006097)
 65:   3119.11   0.002381   12.03  0.000238  (-0.014088  0.005165  0.003615)
 66:   3127.75   0.000896    4.53  0.000089  ( 0.000545  0.009048  0.002687)
 67:   3153.66   0.000058    0.29  0.000006  (-0.001839 -0.001401 -0.000625)
 68:   3191.17   0.001011    5.11  0.000099  ( 0.005441  0.001764  0.008135)
 69:   3204.62   0.000184    0.93  0.000018  ( 0.001626  0.003658  0.001365)
 70:   3516.52   0.022048  111.42  0.001957  ( 0.037935 -0.022387 -0.004045)
 71:   3557.67   0.031781  160.61  0.002788  ( 0.034326  0.036115  0.017470)
 72:   3578.64   0.020571  103.96  0.001794  ( 0.010401  0.000189  0.041057)
 73:   3674.69   0.009093   45.95  0.000772  ( 0.020620  0.003531 -0.018290)
 74:   3840.43   0.022177  112.07  0.001802  (-0.018417 -0.006485 -0.037694)

--------------------------
THERMOCHEMISTRY AT 298.15K
--------------------------

Temperature         ... 298.15 K
Pressure            ... 1.00 atm
Total Mass          ... 190.18 AMU

Throughout the following assumptions are being made:
  (1) The electronic state is orbitally nondegenerate
  (2) There are no thermally accessible electronically excited states
  (3) Hindered rotations indicated by low frequency modes are not
      treated as such but are treated as vibrations and this may
      cause some error
  (4) All equations used are the standard statistical mechanics
      equations for an ideal gas
  (5) All vibrations are strictly harmonic

freq.      19.46  E(vib)   ...       0.57
freq.      41.51  E(vib)   ...       0.54
freq.      60.21  E(vib)   ...       0.51
freq.      80.24  E(vib)   ...       0.49
freq.      83.78  E(vib)   ...       0.48
freq.      98.58  E(vib)   ...       0.46
freq.     139.30  E(vib)   ...       0.42
freq.     191.53  E(vib)   ...       0.36
freq.     257.58  E(vib)   ...       0.30
freq.     288.15  E(vib)   ...       0.27
freq.     299.72  E(vib)   ...       0.26
freq.     347.16  E(vib)   ...       0.23
freq.     356.00  E(vib)   ...       0.22
freq.     413.34  E(vib)   ...       0.19
freq.     471.69  E(vib)   ...       0.15
freq.     482.94  E(vib)   ...       0.15
freq.     498.80  E(vib)   ...       0.14
freq.     531.02  E(vib)   ...       0.13
freq.     580.55  E(vib)   ...       0.11
freq.     585.58  E(vib)   ...       0.11
freq.     654.25  E(vib)   ...       0.08
freq.     665.27  E(vib)   ...       0.08
freq.     712.03  E(vib)   ...       0.07
freq.     754.26  E(vib)   ...       0.06
freq.     806.38  E(vib)   ...       0.05
freq.     874.78  E(vib)   ...       0.04
freq.     886.32  E(vib)   ...       0.04
freq.     920.32  E(vib)   ...       0.03
freq.     931.18  E(vib)   ...       0.03
freq.    1004.37  E(vib)   ...       0.02
freq.    1026.60  E(vib)   ...       0.02
freq.    1060.12  E(vib)   ...       0.02
freq.    1081.29  E(vib)   ...       0.02
freq.    1113.09  E(vib)   ...       0.01
freq.    1119.22  E(vib)   ...       0.01
freq.    1154.24  E(vib)   ...       0.01
freq.    1209.38  E(vib)   ...       0.01
freq.    1235.42  E(vib)   ...       0.01
freq.    1291.68  E(vib)   ...       0.01
freq.    1304.61  E(vib)   ...       0.01
freq.    1314.59  E(vib)   ...       0.01
freq.    1324.50  E(vib)   ...       0.01
freq.    1333.38  E(vib)   ...       0.01
freq.    1373.53  E(vib)   ...       0.01
freq.    1397.42  E(vib)   ...       0.00
freq.    1425.84  E(vib)   ...       0.00
freq.    1442.37  E(vib)   ...       0.00
freq.    1466.10  E(vib)   ...       0.00
freq.    1501.25  E(vib)   ...       0.00
freq.    1506.51  E(vib)   ...       0.00
freq.    1554.12  E(vib)   ...       0.00
freq.    1634.74  E(vib)   ...       0.00
freq.    1649.12  E(vib)   ...       0.00
freq.    1669.58  E(vib)   ...       0.00
freq.    1792.65  E(vib)   ...       0.00
freq.    1817.27  E(vib)   ...       0.00
freq.    1842.87  E(vib)   ...       0.00
freq.    2903.08  E(vib)   ...       0.00
freq.    3101.59  E(vib)   ...       0.00
freq.    3119.11  E(vib)   ...       0.00
freq.    3127.75  E(vib)   ...       0.00
freq.    3153.66  E(vib)   ...       0.00
freq.    3191.17  E(vib)   ...       0.00
freq.    3204.62  E(vib)   ...       0.00
freq.    3516.52  E(vib)   ...       0.00
freq.    3557.67  E(vib)   ...       0.00
freq.    3578.64  E(vib)   ...       0.00
freq.    3674.69  E(vib)   ...       0.00
freq.    3840.43  E(vib)   ...       0.00

------------
INNER ENERGY
------------

The inner energy is: U= E(el) + E(ZPE) + E(vib) + E(rot) + E(trans)
    E(el)   - is the total energy from the electronic structure calculation
              = E(kin-el) + E(nuc-el) + E(el-el) + E(nuc-nuc)
    E(ZPE)  - the the zero temperature vibrational energy from the frequency calculation
    E(vib)  - the the finite temperature correction to E(ZPE) due to population
              of excited vibrational states
    E(rot)  - is the rotational thermal energy
    E(trans)- is the translational thermal energy

Summary of contributions to the inner energy U:
Electronic energy                ...   -701.33725740 Eh
Zero point energy                ...      0.20878657 Eh     131.02 kcal/mol
Thermal vibrational correction   ...      0.01076389 Eh       6.75 kcal/mol
Thermal rotational correction    ...      0.00141627 Eh       0.89 kcal/mol
Thermal translational correction ...      0.00141627 Eh       0.89 kcal/mol
-----------------------------------------------------------------------
Total thermal energy                   -701.11487439 Eh

Summary of corrections to the electronic energy:
(perhaps to be used in another calculation)
Total thermal correction                  0.01359643 Eh       8.53 kcal/mol
Non-thermal (ZPE) correction              0.20878657 Eh     131.02 kcal/mol
-----------------------------------------------------------------------
Total correction                          0.22238301 Eh     139.55 kcal/mol

--------
ENTHALPY
--------

The enthalpy is H = U + kB*T
                kB is Boltzmann's constant
Total free energy                 ...   -701.11487439 Eh
Thermal Enthalpy correction       ...      0.00094421 Eh       0.59 kcal/mol
-----------------------------------------------------------------------
Total Enthalpy                    ...   -701.11393018 Eh

Note: Only C1 symmetry has been detected, increase convergence thresholds
      if your molecule has a higher symmetry. Symmetry factor of 1.0 is
      used for the rotational entropy correction.

Note: Rotational entropy computed according to Herzberg
Infrared and Raman Spectra, Chapter V,1, Van Nostrand Reinhold, 1945
Point Group:  C1, Symmetry Number:   1
Rotational constants in cm-1:     0.039548     0.017363     0.013774

Vibrational entropy computed according to the QRRHO of S. Grimme
Chem.Eur.J. 2012 18 9955

-------
ENTROPY
-------

The entropy contributions are T*S = T*(S(el)+S(vib)+S(rot)+S(trans))
     S(el)   - electronic entropy
     S(vib)  - vibrational entropy
     S(rot)  - rotational entropy
     S(trans)- translational entropy
The entropies will be listed as multiplied by the temperature to get
units of energy

Electronic entropy                ...      0.00000000 Eh      0.00 kcal/mol
Vibrational entropy               ...      0.01938459 Eh     12.16 kcal/mol
Rotational entropy                ...      0.01497227 Eh      9.40 kcal/mol
Translational entropy             ...      0.01978162 Eh     12.41 kcal/mol
-----------------------------------------------------------------------

                             ****ORCA TERMINATED NORMALLY****
TOTAL RUN TIME: 0 days 2 hours 32 minutes 3 seconds 337 msec
