                         Program Version 5.0.2 -  RELEASE  -
|  1> # GGG-H_tt_027 (old 162)
|  2> ! wB97X-D3BJ Opt Freq def2-TZVPP def2/J RIJCOSX VeryTightSCF
|  3> ! PAL8 defgrid3 VeryTightOpt
|  4>
|  5> %maxcore 4096
|  6>
|  7> %geom
|  8>   MaxIter 300
|  9>   # MaxStep 0.1
| 10>   Calc_Hess true
| 11>   Recalc_Hess 10
| 12> end
| 13>
| 14> %chelpg
| 15>   grid 0.1
| 16>   rmax 3.0
| 17> end
| 18>
| 19> * xyz 1 1
| 20>  N   +0.137101   +2.198946   +2.784269
| 21>  H   +0.191761   +3.065441   +2.250351
| 22>  C   +0.714371   +2.155489   +4.112085
| 23>  C   +2.051093   +1.386161   +4.148197
| 24>  H   +0.870063   +3.186777   +4.470732
| 25>  H   +0.018436   +1.653211   +4.809109
| 26>  O   +2.595617   +0.926709   +3.162659
| 27>  C   -0.192134   +1.051971   +2.150450
| 28>  C   -0.624188   +1.136304   +0.672674
| 29>  O   -0.108292   -0.053171   +2.718339
| 30>  N   +0.000000   +0.000000   +0.000000
| 31>  H   -0.300466   +2.073572   +0.196338
| 32>  H   -1.720121   +1.053573   +0.596099
| 33>  H   -0.477630   -0.893735   +0.116052
| 34>  C   +1.377788   +0.000000   +0.000000
| 35>  C   +2.033762   -1.358341   +0.293019
| 36>  O   +2.049550   +1.019277   +0.000000
| 37>  H   +3.053162   -1.392474   -0.114540
| 38>  H   +1.452983   -2.232574   -0.040018
| 39>  O   +2.594769   +1.220719   +5.359891
| 40>  H   +2.069348   +1.650234   +6.064788
| 41>  N   +2.108503   -1.386364   +1.803406
| 42>  H   +1.151602   -1.182557   +2.214390
| 43>  H   +2.482866   -2.270540   +2.175726
| 44>  H   +2.671634   -0.581113   +2.179265
| 45> *
| 46>
| 47>                          ****END OF INPUT****
 Total Charge           Charge          ....    1
 Multiplicity           Mult            ....    1
 Number of Electrons    NEL             ....  100
Dispersion correction           -0.046325229
FINAL SINGLE POINT ENERGY      -701.341049917145
Dispersion correction            ... done
Dispersion correction in the Hessian             ... done   (      0.8 sec)
Dispersion correction           -0.046485915
FINAL SINGLE POINT ENERGY      -701.344643036309
Dispersion correction            ... done
Dispersion correction           -0.046376805
FINAL SINGLE POINT ENERGY      -701.344799390093
FINAL SINGLE POINT ENERGY      -701.344879367325
FINAL SINGLE POINT ENERGY      -701.344898644824
FINAL SINGLE POINT ENERGY      -701.344910692564
FINAL SINGLE POINT ENERGY      -701.344913636999
FINAL SINGLE POINT ENERGY      -701.344914730226
Dispersion correction           -0.046279276
FINAL SINGLE POINT ENERGY      -701.344915034910
Dispersion correction            ... done
Dispersion correction           -0.046275955
FINAL SINGLE POINT ENERGY      -701.344915069299
Dispersion correction            ... done
                    ***********************HURRAY********************

CARTESIAN COORDINATES (ANGSTROEM)
---------------------------------
  N      0.163575    2.181606    2.777438
  H      0.249232    3.030922    2.245566
  C      0.689477    2.141221    4.119430
  C      2.030196    1.409525    4.216595
  H      0.811493    3.162512    4.483720
  H     -0.016240    1.629942    4.779466
  O      2.606113    0.921975    3.281148
  C     -0.167810    1.049127    2.141209
  C     -0.602331    1.157177    0.674237
  O     -0.107922   -0.051693    2.688078
  N     -0.018703    0.023539   -0.025929
  H     -0.273651    2.088069    0.216797
  H     -1.689070    1.099249    0.616615
  H     -0.511618   -0.847007    0.088096
  C      1.344908   -0.027858    0.014649
  C      1.969416   -1.399583    0.269418
  O      2.051342    0.952024    0.059219
  H      2.932234   -1.479896   -0.228617
  H      1.331369   -2.245792    0.020126
  O      2.540932    1.319575    5.444797
  H      1.993251    1.755361    6.107309
  N      2.191171   -1.389787    1.756687
  H      1.294190   -1.205150    2.245540
  H      2.607124   -2.254601    2.096102
  H      2.782901   -0.592942    2.035585

 Multiplicity           Mult            ....    1
 Number of Electrons    NEL             ....  100
 Basis Dimension        Dim             ....  571

ORBITAL ENERGIES
----------------

  NO   OCC          E(Eh)            E(eV)
   0   2.0000     -19.403789      -528.0039
   1   2.0000     -19.346951      -526.4573
   2   2.0000     -19.340962      -526.2943
   3   2.0000     -19.340128      -526.2716
   4   2.0000     -14.685178      -399.6040
   5   2.0000     -14.598396      -397.2425
   6   2.0000     -14.588624      -396.9766
   7   2.0000     -10.556376      -287.2536
   8   2.0000     -10.535628      -286.6890
   9   2.0000     -10.534176      -286.6495
  10   2.0000     -10.501124      -285.7501
  11   2.0000     -10.476210      -285.0722
  12   2.0000     -10.464784      -284.7612
  13   2.0000      -1.388081       -37.7716
  14   2.0000      -1.348638       -36.6983
  15   2.0000      -1.332228       -36.2518
  16   2.0000      -1.301652       -35.4198
  17   2.0000      -1.288432       -35.0600
  18   2.0000      -1.221802       -33.2469
  19   2.0000      -1.215679       -33.0803
  20   2.0000      -1.056237       -28.7417
  21   2.0000      -1.032701       -28.1012
  22   2.0000      -0.983808       -26.7708
  23   2.0000      -0.894874       -24.3508
  24   2.0000      -0.883603       -24.0441
  25   2.0000      -0.873548       -23.7704
  26   2.0000      -0.856225       -23.2991
  27   2.0000      -0.846139       -23.0246
  28   2.0000      -0.813843       -22.1458
  29   2.0000      -0.800883       -21.7931
  30   2.0000      -0.788383       -21.4530
  31   2.0000      -0.768500       -20.9119
  32   2.0000      -0.753449       -20.5024
  33   2.0000      -0.734628       -19.9902
  34   2.0000      -0.728696       -19.8288
  35   2.0000      -0.714058       -19.4305
  36   2.0000      -0.706218       -19.2172
  37   2.0000      -0.687177       -18.6990
  38   2.0000      -0.680990       -18.5307
  39   2.0000      -0.675197       -18.3730
  40   2.0000      -0.652416       -17.7531
  41   2.0000      -0.644289       -17.5320
  42   2.0000      -0.639615       -17.4048
  43   2.0000      -0.627233       -17.0679
  44   2.0000      -0.577225       -15.7071
  45   2.0000      -0.551634       -15.0107
  46   2.0000      -0.539260       -14.6740
  47   2.0000      -0.530358       -14.4318
  48   2.0000      -0.525203       -14.2915
  49   2.0000      -0.509249       -13.8574
  50   0.0000      -0.082197        -2.2367
  51   0.0000      -0.055137        -1.5004
  52   0.0000      -0.047517        -1.2930
  53   0.0000      -0.046431        -1.2635
  54   0.0000      -0.024217        -0.6590

MULLIKEN ATOMIC CHARGES
-----------------------
   0 N :   -0.162880
   1 H :    0.195314
   2 C :   -0.130867
   3 C :    0.346113
   4 H :    0.157567
   5 H :    0.146798
   6 O :   -0.357624
   7 C :    0.298770
   8 C :   -0.091150
   9 O :   -0.458821
  10 N :   -0.164353
  11 H :    0.128694
  12 H :    0.144217
  13 H :    0.181664
  14 C :    0.172762
  15 C :   -0.144477
  16 O :   -0.285940
  17 H :    0.173122
  18 H :    0.151201
  19 O :   -0.203733
  20 H :    0.227686
  21 N :   -0.054937
  22 H :    0.241399
  23 H :    0.232732
  24 H :    0.256743
Sum of atomic charges:    1.0000000

LOEWDIN ATOMIC CHARGES
----------------------
   0 N :    0.351264
   1 H :   -0.005642
   2 C :   -0.044985
   3 C :   -0.421625
   4 H :    0.039692
   5 H :    0.042142
   6 O :    0.121820
   7 C :   -0.368466
   8 C :   -0.023001
   9 O :    0.070734
  10 N :    0.321592
  11 H :    0.033738
  12 H :    0.039513
  13 H :   -0.021501
  14 C :   -0.403433
  15 C :    0.036891
  16 O :    0.142185
  17 H :    0.040661
  18 H :    0.028689
  19 O :    0.406486
  20 H :   -0.085718
  21 N :    0.604119
  22 H :    0.016526
  23 H :    0.044390
  24 H :    0.033929

  Mayer bond orders larger than 0.100000
B(  0-N ,  1-H ) :   0.9590 B(  0-N ,  2-C ) :   0.9449 B(  0-N ,  7-C ) :   1.2922
B(  2-C ,  3-C ) :   0.9295 B(  2-C ,  4-H ) :   0.9678 B(  2-C ,  5-H ) :   0.9746
B(  3-C ,  6-O ) :   1.9707 B(  3-C , 19-O ) :   1.2704 B(  7-C ,  8-C ) :   0.9187
B(  7-C ,  9-O ) :   1.8241 B(  8-C , 10-N ) :   0.9327 B(  8-C , 11-H ) :   0.9992
B(  8-C , 12-H ) :   0.9876 B( 10-N , 13-H ) :   0.9685 B( 10-N , 14-C ) :   1.2372
B( 14-C , 15-C ) :   0.9405 B( 14-C , 16-O ) :   2.0657 B( 15-C , 17-H ) :   0.9859
B( 15-C , 18-H ) :   0.9962 B( 15-C , 21-N ) :   0.8736 B( 19-O , 20-H ) :   0.9721
B( 21-N , 22-H ) :   0.8871 B( 21-N , 23-H ) :   0.9370 B( 21-N , 24-H ) :   0.8933

Dispersion correction           -0.046274799
FINAL SINGLE POINT ENERGY      -701.344915060197

DIPOLE MOMENT
-------------
                                X             Y             Z
Electronic contribution:      1.60767       1.88779       1.32915
Nuclear contribution   :     -2.25264      -3.08854      -0.99893
                        -----------------------------------------
Total Dipole Moment    :     -0.64496      -1.20075       0.33021
                        -----------------------------------------
Magnitude (a.u.)       :      1.40243
Magnitude (Debye)      :      3.56470

Dispersion correction in the Hessian             ... done   (      0.8 sec)

VIBRATIONAL FREQUENCIES
-----------------------

Scaling factor for frequencies =  1.000000000  (already applied!)

   0:         0.00 cm**-1
   1:         0.00 cm**-1
   2:         0.00 cm**-1
   3:         0.00 cm**-1
   4:         0.00 cm**-1
   5:         0.00 cm**-1
   6:        43.70 cm**-1
   7:        58.08 cm**-1
   8:        76.55 cm**-1
   9:        84.17 cm**-1
  10:       133.36 cm**-1
  11:       151.81 cm**-1
  12:       201.32 cm**-1
  13:       227.26 cm**-1
  14:       267.65 cm**-1
  15:       282.88 cm**-1
  16:       298.59 cm**-1
  17:       310.41 cm**-1
  18:       348.06 cm**-1
  19:       392.70 cm**-1
  20:       434.81 cm**-1
  21:       478.70 cm**-1
  22:       493.05 cm**-1
  23:       524.28 cm**-1
  24:       577.90 cm**-1
  25:       587.55 cm**-1
  26:       617.93 cm**-1
  27:       679.71 cm**-1
  28:       712.29 cm**-1
  29:       757.28 cm**-1
  30:       797.13 cm**-1
  31:       871.49 cm**-1
  32:       884.22 cm**-1
  33:       896.85 cm**-1
  34:       917.50 cm**-1
  35:       982.32 cm**-1
  36:      1046.56 cm**-1
  37:      1057.08 cm**-1
  38:      1060.37 cm**-1
  39:      1118.41 cm**-1
  40:      1136.01 cm**-1
  41:      1151.45 cm**-1
  42:      1202.90 cm**-1
  43:      1258.40 cm**-1
  44:      1284.94 cm**-1
  45:      1299.26 cm**-1
  46:      1314.99 cm**-1
  47:      1328.77 cm**-1
  48:      1335.95 cm**-1
  49:      1404.76 cm**-1
  50:      1421.14 cm**-1
  51:      1428.38 cm**-1
  52:      1472.29 cm**-1
  53:      1472.68 cm**-1
  54:      1506.47 cm**-1
  55:      1553.07 cm**-1
  56:      1565.97 cm**-1
  57:      1597.61 cm**-1
  58:      1640.63 cm**-1
  59:      1666.13 cm**-1
  60:      1737.60 cm**-1
  61:      1823.91 cm**-1
  62:      1867.36 cm**-1
  63:      3089.86 cm**-1
  64:      3124.02 cm**-1
  65:      3130.26 cm**-1
  66:      3147.63 cm**-1
  67:      3182.61 cm**-1
  68:      3203.22 cm**-1
  69:      3215.85 cm**-1
  70:      3354.52 cm**-1
  71:      3546.59 cm**-1
  72:      3658.81 cm**-1
  73:      3678.67 cm**-1
  74:      3840.77 cm**-1

IR SPECTRUM
-----------

 Mode   freq       eps      Int      T**2         TX        TY        TZ
       cm**-1   L/(mol*cm) km/mol    a.u.
----------------------------------------------------------------------------
  6:     43.70   0.000207    1.05  0.001478  (-0.006750  0.017561 -0.033527)
  7:     58.08   0.000212    1.07  0.001142  ( 0.033013 -0.003778  0.006125)
  8:     76.55   0.003817   19.29  0.015560  (-0.010155 -0.022124  0.122340)
  9:     84.17   0.000830    4.19  0.003076  (-0.001155  0.036604  0.041650)
 10:    133.36   0.002670   13.49  0.006247  (-0.019766  0.027215  0.071523)
 11:    151.81   0.008315   42.02  0.017091  (-0.123835 -0.032189 -0.026831)
 12:    201.32   0.009308   47.04  0.014429  ( 0.029514 -0.066984 -0.095242)
 13:    227.26   0.005015   25.34  0.006886  ( 0.033004 -0.073430 -0.020120)
 14:    267.65   0.002067   10.45  0.002410  (-0.009978  0.043364 -0.020732)
 15:    282.88   0.003859   19.50  0.004257  (-0.048645 -0.021626 -0.037723)
 16:    298.59   0.006817   34.45  0.007125  (-0.062019  0.036904 -0.043776)
 17:    310.41   0.000875    4.42  0.000880  (-0.000979  0.024511 -0.016675)
 18:    348.06   0.000648    3.27  0.000581  (-0.008043 -0.005025  0.022152)
 19:    392.70   0.006874   34.74  0.005462  ( 0.040429 -0.050605 -0.035592)
 20:    434.81   0.004590   23.19  0.003294  (-0.029539  0.046358  0.016504)
 21:    478.70   0.016727   84.53  0.010904  ( 0.047923  0.091984 -0.012095)
 22:    493.05   0.010534   53.23  0.006667  ( 0.074247 -0.033806 -0.003407)
 23:    524.28   0.003302   16.69  0.001965  (-0.025112  0.031577  0.018372)
 24:    577.90   0.006049   30.57  0.003266  (-0.041817 -0.037860 -0.009187)
 25:    587.55   0.010931   55.24  0.005806  ( 0.040377  0.010824  0.063705)
 26:    617.93   0.005017   25.36  0.002534  ( 0.008340 -0.033492 -0.036642)
 27:    679.71   0.012359   62.46  0.005674  (-0.044425 -0.014420 -0.059098)
 28:    712.29   0.002295   11.60  0.001006  ( 0.025236 -0.011825 -0.015130)
 29:    757.28   0.001213    6.13  0.000500  (-0.011135  0.005478 -0.018592)
 30:    797.13   0.001985   10.03  0.000777  ( 0.005239  0.001066  0.027359)
 31:    871.49   0.000353    1.78  0.000126  (-0.003843  0.010503 -0.001147)
 32:    884.22   0.002212   11.18  0.000781  ( 0.012112 -0.010328  0.022964)
 33:    896.85   0.002226   11.25  0.000775  ( 0.014015 -0.001730 -0.023984)
 34:    917.50   0.000316    1.59  0.000107  ( 0.009220 -0.001732 -0.004395)
 35:    982.32   0.001568    7.92  0.000498  ( 0.017909 -0.012050  0.005672)
 36:   1046.56   0.001519    7.68  0.000453  ( 0.015448 -0.010276  0.010429)
 37:   1057.08   0.002518   12.72  0.000743  (-0.003875 -0.026751  0.003557)
 38:   1060.37   0.002734   13.81  0.000804  (-0.027327  0.005386  0.005360)
 39:   1118.41   0.001555    7.86  0.000434  ( 0.020559 -0.001044 -0.003183)
 40:   1136.01   0.009979   50.43  0.002741  ( 0.025979 -0.043607 -0.012836)
 41:   1151.45   0.004466   22.57  0.001210  (-0.021319  0.014496  0.023364)
 42:   1202.90   0.000785    3.97  0.000204  ( 0.002008 -0.000157 -0.014126)
 43:   1258.40   0.006650   33.61  0.001649  (-0.014483 -0.020622 -0.031844)
 44:   1284.94   0.006492   32.81  0.001577  (-0.031897  0.016041 -0.017377)
 45:   1299.26   0.025050  126.59  0.006017  (-0.025833  0.000164 -0.073139)
 46:   1314.99   0.060521  305.85  0.014362  ( 0.041673  0.015449  0.111297)
 47:   1328.77   0.009050   45.74  0.002125  (-0.042263  0.010689 -0.015002)
 48:   1335.95   0.003110   15.72  0.000726  (-0.009448 -0.000846  0.025229)
 49:   1404.76   0.001114    5.63  0.000248  (-0.000553 -0.008024  0.013523)
 50:   1421.14   0.000094    0.48  0.000021  ( 0.000614  0.003870 -0.002314)
 51:   1428.38   0.018364   92.80  0.004012  ( 0.045083 -0.013662  0.042342)
 52:   1472.29   0.003064   15.48  0.000649  ( 0.000664 -0.018603  0.017404)
 53:   1472.68   0.003722   18.81  0.000789  ( 0.008105  0.012865 -0.023610)
 54:   1506.47   0.003288   16.62  0.000681  ( 0.015915 -0.019456 -0.007018)
 55:   1553.07   0.028106  142.03  0.005647  ( 0.072904 -0.018149 -0.001731)
 56:   1565.97   0.017680   89.35  0.003523  (-0.009047  0.000224 -0.058662)
 57:   1597.61   0.054057  273.18  0.010559  ( 0.029056  0.063913  0.075033)
 58:   1640.63   0.030242  152.83  0.005752  (-0.003245 -0.075767  0.001064)
 59:   1666.13   0.040872  206.55  0.007655  ( 0.052055 -0.065882 -0.024597)
 60:   1737.60   0.026297  132.90  0.004723  ( 0.012850  0.065297 -0.017146)
 61:   1823.91   0.038812  196.14  0.006641  ( 0.056063  0.059134  0.000764)
 62:   1867.36   0.061377  310.18  0.010257  (-0.042347  0.042013  0.081845)
 63:   3089.86   0.001651    8.34  0.000167  (-0.005575 -0.002456 -0.011383)
 64:   3124.02   0.000704    3.56  0.000070  (-0.003938  0.005566  0.004882)
 65:   3130.26   0.000582    2.94  0.000058  ( 0.001969  0.005969  0.004305)
 66:   3147.63   0.000018    0.09  0.000002  (-0.000181  0.000551 -0.001221)
 67:   3182.61   0.000510    2.58  0.000050  (-0.005334  0.004595  0.000701)
 68:   3203.22   0.005624   28.42  0.000548  ( 0.018354 -0.011245 -0.009197)
 69:   3215.85   0.061396  310.27  0.005958  (-0.056191  0.039290  0.035451)
 70:   3354.52   0.041806  211.27  0.003889  ( 0.025705  0.042073  0.038188)
 71:   3546.59   0.025567  129.20  0.002250  (-0.018519  0.043531 -0.003424)
 72:   3658.81   0.009140   46.19  0.000780  (-0.020197 -0.019214 -0.001569)
 73:   3678.67   0.015006   75.83  0.001273  (-0.002917 -0.033978  0.010484)
 74:   3840.77   0.022901  115.73  0.001861  ( 0.008941 -0.014187 -0.039743)

--------------------------
THERMOCHEMISTRY AT 298.15K
--------------------------

Temperature         ... 298.15 K
Pressure            ... 1.00 atm
Total Mass          ... 190.18 AMU

Throughout the following assumptions are being made:
  (1) The electronic state is orbitally nondegenerate
  (2) There are no thermally accessible electronically excited states
  (3) Hindered rotations indicated by low frequency modes are not
      treated as such but are treated as vibrations and this may
      cause some error
  (4) All equations used are the standard statistical mechanics
      equations for an ideal gas
  (5) All vibrations are strictly harmonic

freq.      43.70  E(vib)   ...       0.53
freq.      58.08  E(vib)   ...       0.51
freq.      76.55  E(vib)   ...       0.49
freq.      84.17  E(vib)   ...       0.48
freq.     133.36  E(vib)   ...       0.42
freq.     151.81  E(vib)   ...       0.40
freq.     201.32  E(vib)   ...       0.35
freq.     227.26  E(vib)   ...       0.33
freq.     267.65  E(vib)   ...       0.29
freq.     282.88  E(vib)   ...       0.28
freq.     298.59  E(vib)   ...       0.26
freq.     310.41  E(vib)   ...       0.26
freq.     348.06  E(vib)   ...       0.23
freq.     392.70  E(vib)   ...       0.20
freq.     434.81  E(vib)   ...       0.17
freq.     478.70  E(vib)   ...       0.15
freq.     493.05  E(vib)   ...       0.14
freq.     524.28  E(vib)   ...       0.13
freq.     577.90  E(vib)   ...       0.11
freq.     587.55  E(vib)   ...       0.10
freq.     617.93  E(vib)   ...       0.09
freq.     679.71  E(vib)   ...       0.08
freq.     712.29  E(vib)   ...       0.07
freq.     757.28  E(vib)   ...       0.06
freq.     797.13  E(vib)   ...       0.05
freq.     871.49  E(vib)   ...       0.04
freq.     884.22  E(vib)   ...       0.04
freq.     896.85  E(vib)   ...       0.03
freq.     917.50  E(vib)   ...       0.03
freq.     982.32  E(vib)   ...       0.02
freq.    1046.56  E(vib)   ...       0.02
freq.    1057.08  E(vib)   ...       0.02
freq.    1060.37  E(vib)   ...       0.02
freq.    1118.41  E(vib)   ...       0.01
freq.    1136.01  E(vib)   ...       0.01
freq.    1151.45  E(vib)   ...       0.01
freq.    1202.90  E(vib)   ...       0.01
freq.    1258.40  E(vib)   ...       0.01
freq.    1284.94  E(vib)   ...       0.01
freq.    1299.26  E(vib)   ...       0.01
freq.    1314.99  E(vib)   ...       0.01
freq.    1328.77  E(vib)   ...       0.01
freq.    1335.95  E(vib)   ...       0.01
freq.    1404.76  E(vib)   ...       0.00
freq.    1421.14  E(vib)   ...       0.00
freq.    1428.38  E(vib)   ...       0.00
freq.    1472.29  E(vib)   ...       0.00
freq.    1472.68  E(vib)   ...       0.00
freq.    1506.47  E(vib)   ...       0.00
freq.    1553.07  E(vib)   ...       0.00
freq.    1565.97  E(vib)   ...       0.00
freq.    1597.61  E(vib)   ...       0.00
freq.    1640.63  E(vib)   ...       0.00
freq.    1666.13  E(vib)   ...       0.00
freq.    1737.60  E(vib)   ...       0.00
freq.    1823.91  E(vib)   ...       0.00
freq.    1867.36  E(vib)   ...       0.00
freq.    3089.86  E(vib)   ...       0.00
freq.    3124.02  E(vib)   ...       0.00
freq.    3130.26  E(vib)   ...       0.00
freq.    3147.63  E(vib)   ...       0.00
freq.    3182.61  E(vib)   ...       0.00
freq.    3203.22  E(vib)   ...       0.00
freq.    3215.85  E(vib)   ...       0.00
freq.    3354.52  E(vib)   ...       0.00
freq.    3546.59  E(vib)   ...       0.00
freq.    3658.81  E(vib)   ...       0.00
freq.    3678.67  E(vib)   ...       0.00
freq.    3840.77  E(vib)   ...       0.00

------------
INNER ENERGY
------------

The inner energy is: U= E(el) + E(ZPE) + E(vib) + E(rot) + E(trans)
    E(el)   - is the total energy from the electronic structure calculation
              = E(kin-el) + E(nuc-el) + E(el-el) + E(nuc-nuc)
    E(ZPE)  - the the zero temperature vibrational energy from the frequency calculation
    E(vib)  - the the finite temperature correction to E(ZPE) due to population
              of excited vibrational states
    E(rot)  - is the rotational thermal energy
    E(trans)- is the translational thermal energy

Summary of contributions to the inner energy U:
Electronic energy                ...   -701.34491506 Eh
Zero point energy                ...      0.20962672 Eh     131.54 kcal/mol
Thermal vibrational correction   ...      0.01041615 Eh       6.54 kcal/mol
Thermal rotational correction    ...      0.00141627 Eh       0.89 kcal/mol
Thermal translational correction ...      0.00141627 Eh       0.89 kcal/mol
-----------------------------------------------------------------------
Total thermal energy                   -701.12203964 Eh

Summary of corrections to the electronic energy:
(perhaps to be used in another calculation)
Total thermal correction                  0.01324870 Eh       8.31 kcal/mol
Non-thermal (ZPE) correction              0.20962672 Eh     131.54 kcal/mol
-----------------------------------------------------------------------
Total correction                          0.22287542 Eh     139.86 kcal/mol

--------
ENTHALPY
--------

The enthalpy is H = U + kB*T
                kB is Boltzmann's constant
Total free energy                 ...   -701.12203964 Eh
Thermal Enthalpy correction       ...      0.00094421 Eh       0.59 kcal/mol
-----------------------------------------------------------------------
Total Enthalpy                    ...   -701.12109544 Eh

Note: Only C1 symmetry has been detected, increase convergence thresholds
      if your molecule has a higher symmetry. Symmetry factor of 1.0 is
      used for the rotational entropy correction.

Note: Rotational entropy computed according to Herzberg
Infrared and Raman Spectra, Chapter V,1, Van Nostrand Reinhold, 1945
Point Group:  C1, Symmetry Number:   1
Rotational constants in cm-1:     0.041538     0.020603     0.016580

Vibrational entropy computed according to the QRRHO of S. Grimme
Chem.Eur.J. 2012 18 9955

-------
ENTROPY
-------

The entropy contributions are T*S = T*(S(el)+S(vib)+S(rot)+S(trans))
     S(el)   - electronic entropy
     S(vib)  - vibrational entropy
     S(rot)  - rotational entropy
     S(trans)- translational entropy
The entropies will be listed as multiplied by the temperature to get
units of energy

Electronic entropy                ...      0.00000000 Eh      0.00 kcal/mol
Vibrational entropy               ...      0.01811431 Eh     11.37 kcal/mol
Rotational entropy                ...      0.01478078 Eh      9.28 kcal/mol
Translational entropy             ...      0.01978162 Eh     12.41 kcal/mol
-----------------------------------------------------------------------

                             ****ORCA TERMINATED NORMALLY****
TOTAL RUN TIME: 0 days 1 hours 58 minutes 49 seconds 344 msec
