                         Program Version 5.0.2 -  RELEASE  -
|  1> # GGG-H_tt_012 (old 057)
|  2> ! wB97X-D3BJ Opt Freq def2-TZVPP def2/J RIJCOSX VeryTightSCF
|  3> ! PAL8 defgrid3 VeryTightOpt
|  4>
|  5> %maxcore 4096
|  6>
|  7> %geom
|  8>   MaxIter 300
|  9>   # MaxStep 0.1
| 10>   Calc_Hess true
| 11>   Recalc_Hess 10
| 12> end
| 13>
| 14> %chelpg
| 15>   grid 0.1
| 16>   rmax 3.0
| 17> end
| 18>
| 19> * xyz 1 1
| 20>  N   +0.485035   +2.617406   +2.311517
| 21>  H   +0.273206   +3.426253   +1.727436
| 22>  C   +1.270418   +2.783256   +3.534687
| 23>  C   +2.448391   +1.795290   +3.628753
| 24>  H   +1.661241   +3.813692   +3.558794
| 25>  H   +0.659116   +2.618354   +4.435950
| 26>  O   +2.842646   +1.337080   +4.665413
| 27>  C   +0.068552   +1.385458   +1.948399
| 28>  C   -0.615011   +1.200008   +0.574692
| 29>  O   +0.329734   +0.390494   +2.648687
| 30>  N   +0.000000   +0.000000   +0.000000
| 31>  H   -0.470406   +2.069189   -0.085350
| 32>  H   -1.693515   +1.021531   +0.704685
| 33>  H   -0.501451   -0.882118   +0.097700
| 34>  C   +1.360788   +0.000000   +0.000000
| 35>  C   +2.078902   -1.316300   +0.320513
| 36>  O   +2.012987   +1.046528   +0.000000
| 37>  H   +3.018333   -1.399673   -0.243860
| 38>  H   +1.468207   -2.222213   +0.188484
| 39>  O   +3.079551   +1.468395   +2.446739
| 40>  H   +2.653851   +1.863271   +1.647789
| 41>  N   +2.404990   -1.167549   +1.791748
| 42>  H   +2.863050   -1.997609   +2.195443
| 43>  H   +2.997501   -0.309737   +1.967448
| 44>  H   +1.521817   -0.929944   +2.318636
| 45> *
| 46>
| 47>                          ****END OF INPUT****
 Total Charge           Charge          ....    1
 Multiplicity           Mult            ....    1
 Number of Electrons    NEL             ....  100
Dispersion correction           -0.048512806
FINAL SINGLE POINT ENERGY      -701.335179622305
Dispersion correction            ... done
Dispersion correction in the Hessian             ... done   (      0.7 sec)
Dispersion correction           -0.048436828
FINAL SINGLE POINT ENERGY      -701.339375943337
Dispersion correction            ... done
Dispersion correction           -0.048278721
FINAL SINGLE POINT ENERGY      -701.339637356001
FINAL SINGLE POINT ENERGY      -701.339765326999
FINAL SINGLE POINT ENERGY      -701.339802311048
FINAL SINGLE POINT ENERGY      -701.339818879344
FINAL SINGLE POINT ENERGY      -701.339821939701
Dispersion correction           -0.048085781
FINAL SINGLE POINT ENERGY      -701.339822366163
Dispersion correction            ... done
Dispersion correction           -0.048086280
FINAL SINGLE POINT ENERGY      -701.339822304931
Dispersion correction            ... done
                    ***********************HURRAY********************

CARTESIAN COORDINATES (ANGSTROEM)
---------------------------------
  N      0.465681    2.615856    2.325658
  H      0.254702    3.419336    1.757963
  C      1.206700    2.769344    3.569412
  C      2.434155    1.855937    3.643860
  H      1.534976    3.805885    3.654918
  H      0.590421    2.525013    4.433052
  O      2.813712    1.364961    4.659672
  C      0.090385    1.391821    1.930067
  C     -0.565122    1.227559    0.550808
  O      0.345943    0.397938    2.608560
  N     -0.007198    0.006378   -0.017586
  H     -0.367010    2.079346   -0.097350
  H     -1.642384    1.110208    0.663395
  H     -0.512728   -0.842881    0.173019
  C      1.346074   -0.051646   -0.005387
  C      2.005865   -1.387676    0.333205
  O      2.051440    0.938074   -0.054222
  H      2.874643   -1.560242   -0.297767
  H      1.335777   -2.244938    0.309084
  O      3.103934    1.625475    2.482152
  H      2.691174    2.053036    1.720431
  N      2.469144   -1.185330    1.751493
  H      2.919927   -2.012761    2.138474
  H      3.114972   -0.384721    1.811857
  H      1.662751   -0.904911    2.339533

 Multiplicity           Mult            ....    1
 Number of Electrons    NEL             ....  100
 Basis Dimension        Dim             ....  571

ORBITAL ENERGIES
----------------

  NO   OCC          E(Eh)            E(eV)
   0   2.0000     -19.396247      -527.7987
   1   2.0000     -19.363191      -526.8992
   2   2.0000     -19.353149      -526.6260
   3   2.0000     -19.328921      -525.9667
   4   2.0000     -14.701562      -400.0498
   5   2.0000     -14.610627      -397.5754
   6   2.0000     -14.609871      -397.5548
   7   2.0000     -10.559147      -287.3290
   8   2.0000     -10.547882      -287.0225
   9   2.0000     -10.539474      -286.7937
  10   2.0000     -10.519068      -286.2384
  11   2.0000     -10.482086      -285.2321
  12   2.0000     -10.467689      -284.8403
  13   2.0000      -1.377464       -37.4827
  14   2.0000      -1.366823       -37.1932
  15   2.0000      -1.345843       -36.6222
  16   2.0000      -1.304504       -35.4973
  17   2.0000      -1.287640       -35.0385
  18   2.0000      -1.236317       -33.6419
  19   2.0000      -1.228462       -33.4281
  20   2.0000      -1.070653       -29.1340
  21   2.0000      -1.037598       -28.2345
  22   2.0000      -0.992887       -27.0178
  23   2.0000      -0.899294       -24.4710
  24   2.0000      -0.895218       -24.3601
  25   2.0000      -0.877150       -23.8685
  26   2.0000      -0.871636       -23.7184
  27   2.0000      -0.863145       -23.4874
  28   2.0000      -0.822446       -22.3799
  29   2.0000      -0.811527       -22.0828
  30   2.0000      -0.794052       -21.6073
  31   2.0000      -0.774934       -21.0870
  32   2.0000      -0.764738       -20.8096
  33   2.0000      -0.747260       -20.3340
  34   2.0000      -0.729268       -19.8444
  35   2.0000      -0.719554       -19.5801
  36   2.0000      -0.706876       -19.2351
  37   2.0000      -0.701046       -19.0764
  38   2.0000      -0.692436       -18.8421
  39   2.0000      -0.681543       -18.5457
  40   2.0000      -0.662866       -18.0375
  41   2.0000      -0.656432       -17.8624
  42   2.0000      -0.642033       -17.4706
  43   2.0000      -0.627841       -17.0844
  44   2.0000      -0.569501       -15.4969
  45   2.0000      -0.554617       -15.0919
  46   2.0000      -0.553947       -15.0737
  47   2.0000      -0.546433       -14.8692
  48   2.0000      -0.534249       -14.5377
  49   2.0000      -0.512264       -13.9394
  50   0.0000      -0.102287        -2.7834
  51   0.0000      -0.066891        -1.8202
  52   0.0000      -0.060982        -1.6594
  53   0.0000      -0.041432        -1.1274
  54   0.0000      -0.027287        -0.7425

MULLIKEN ATOMIC CHARGES
-----------------------
   0 N :   -0.198620
   1 H :    0.207130
   2 C :   -0.068847
   3 C :    0.262506
   4 H :    0.145843
   5 H :    0.150243
   6 O :   -0.244047
   7 C :    0.255987
   8 C :   -0.076103
   9 O :   -0.441327
  10 N :   -0.146033
  11 H :    0.130346
  12 H :    0.152038
  13 H :    0.187884
  14 C :    0.197994
  15 C :   -0.130297
  16 O :   -0.356372
  17 H :    0.177784
  18 H :    0.151093
  19 O :   -0.288401
  20 H :    0.238270
  21 N :   -0.046063
  22 H :    0.240696
  23 H :    0.249834
  24 H :    0.248460
Sum of atomic charges:    1.0000000

LOEWDIN ATOMIC CHARGES
----------------------
   0 N :    0.341809
   1 H :   -0.010260
   2 C :   -0.024501
   3 C :   -0.446378
   4 H :    0.041033
   5 H :    0.045003
   6 O :    0.162911
   7 C :   -0.378473
   8 C :   -0.014844
   9 O :    0.087788
  10 N :    0.335435
  11 H :    0.034250
  12 H :    0.040931
  13 H :   -0.015276
  14 C :   -0.394573
  15 C :    0.043646
  16 O :    0.116901
  17 H :    0.042425
  18 H :    0.031187
  19 O :    0.361091
  20 H :   -0.119717
  21 N :    0.608347
  22 H :    0.049459
  23 H :    0.041585
  24 H :    0.020221

  Mayer bond orders larger than 0.100000
B(  0-N ,  1-H ) :   0.9517 B(  0-N ,  2-C ) :   0.8977 B(  0-N ,  7-C ) :   1.2881
B(  2-C ,  3-C ) :   0.9217 B(  2-C ,  4-H ) :   0.9707 B(  2-C ,  5-H ) :   0.9843
B(  3-C ,  6-O ) :   2.2097 B(  3-C , 19-O ) :   1.1099 B(  7-C ,  8-C ) :   0.9005
B(  7-C ,  9-O ) :   1.8122 B(  8-C , 10-N ) :   0.9328 B(  8-C , 11-H ) :   1.0003
B(  8-C , 12-H ) :   0.9889 B( 10-N , 13-H ) :   0.9640 B( 10-N , 14-C ) :   1.2696
B( 14-C , 15-C ) :   0.9401 B( 14-C , 16-O ) :   1.9376 B( 15-C , 17-H ) :   0.9869
B( 15-C , 18-H ) :   0.9958 B( 15-C , 21-N ) :   0.8768 B( 19-O , 20-H ) :   0.9382
B( 21-N , 22-H ) :   0.9332 B( 21-N , 23-H ) :   0.8960 B( 21-N , 24-H ) :   0.8873

Dispersion correction           -0.048085114
FINAL SINGLE POINT ENERGY      -701.339822201770

DIPOLE MOMENT
-------------
                                X             Y             Z
Electronic contribution:      1.30507       1.70072       1.67287
Nuclear contribution   :     -2.20354      -3.22422      -3.30313
                        -----------------------------------------
Total Dipole Moment    :     -0.89846      -1.52349      -1.63026
                        -----------------------------------------
Magnitude (a.u.)       :      2.40542
Magnitude (Debye)      :      6.11408

Dispersion correction in the Hessian             ... done   (      0.8 sec)

VIBRATIONAL FREQUENCIES
-----------------------

Scaling factor for frequencies =  1.000000000  (already applied!)

   0:         0.00 cm**-1
   1:         0.00 cm**-1
   2:         0.00 cm**-1
   3:         0.00 cm**-1
   4:         0.00 cm**-1
   5:         0.00 cm**-1
   6:        62.17 cm**-1
   7:        69.59 cm**-1
   8:       101.30 cm**-1
   9:       132.25 cm**-1
  10:       150.72 cm**-1
  11:       156.16 cm**-1
  12:       202.00 cm**-1
  13:       219.99 cm**-1
  14:       272.24 cm**-1
  15:       285.44 cm**-1
  16:       293.53 cm**-1
  17:       316.27 cm**-1
  18:       369.90 cm**-1
  19:       403.04 cm**-1
  20:       430.41 cm**-1
  21:       485.80 cm**-1
  22:       522.74 cm**-1
  23:       553.14 cm**-1
  24:       589.16 cm**-1
  25:       620.78 cm**-1
  26:       635.09 cm**-1
  27:       675.70 cm**-1
  28:       720.86 cm**-1
  29:       755.95 cm**-1
  30:       790.25 cm**-1
  31:       864.21 cm**-1
  32:       883.03 cm**-1
  33:       901.24 cm**-1
  34:       915.93 cm**-1
  35:       977.75 cm**-1
  36:      1046.44 cm**-1
  37:      1048.13 cm**-1
  38:      1066.63 cm**-1
  39:      1097.82 cm**-1
  40:      1131.07 cm**-1
  41:      1137.35 cm**-1
  42:      1178.79 cm**-1
  43:      1251.28 cm**-1
  44:      1278.20 cm**-1
  45:      1288.55 cm**-1
  46:      1299.18 cm**-1
  47:      1333.67 cm**-1
  48:      1342.09 cm**-1
  49:      1374.20 cm**-1
  50:      1400.28 cm**-1
  51:      1424.69 cm**-1
  52:      1476.95 cm**-1
  53:      1478.09 cm**-1
  54:      1504.75 cm**-1
  55:      1557.00 cm**-1
  56:      1561.05 cm**-1
  57:      1587.26 cm**-1
  58:      1632.12 cm**-1
  59:      1669.64 cm**-1
  60:      1737.17 cm**-1
  61:      1794.66 cm**-1
  62:      1906.11 cm**-1
  63:      3117.33 cm**-1
  64:      3124.12 cm**-1
  65:      3132.04 cm**-1
  66:      3175.64 cm**-1
  67:      3181.13 cm**-1
  68:      3202.50 cm**-1
  69:      3246.36 cm**-1
  70:      3360.38 cm**-1
  71:      3540.08 cm**-1
  72:      3665.05 cm**-1
  73:      3673.08 cm**-1
  74:      3795.11 cm**-1

IR SPECTRUM
-----------

 Mode   freq       eps      Int      T**2         TX        TY        TZ
       cm**-1   L/(mol*cm) km/mol    a.u.
----------------------------------------------------------------------------
  6:     62.17   0.004571   23.10  0.022945  ( 0.073958  0.099559  0.086968)
  7:     69.59   0.000680    3.43  0.003048  ( 0.003810 -0.042889 -0.034557)
  8:    101.30   0.001932    9.76  0.005953  (-0.048866  0.010387  0.058795)
  9:    132.25   0.002455   12.41  0.005794  (-0.034096  0.020300  0.064956)
 10:    150.72   0.004180   21.13  0.008656  (-0.066521 -0.039869 -0.051392)
 11:    156.16   0.002754   13.92  0.005503  (-0.008027  0.058248  0.045234)
 12:    202.00   0.006378   32.23  0.009853  (-0.062072  0.033289  0.069943)
 13:    219.99   0.003271   16.53  0.004641  ( 0.000476 -0.063853 -0.023735)
 14:    272.24   0.006560   33.15  0.007519  ( 0.070285 -0.025271  0.044052)
 15:    285.44   0.003717   18.78  0.004064  ( 0.001102  0.061415 -0.017046)
 16:    293.53   0.001822    9.21  0.001937  (-0.000514  0.010758 -0.042675)
 17:    316.27   0.001802    9.11  0.001778  ( 0.031863 -0.011699  0.025012)
 18:    369.90   0.001526    7.71  0.001287  ( 0.011700 -0.013732 -0.031011)
 19:    403.04   0.006321   31.94  0.004894  (-0.043294  0.049314  0.024249)
 20:    430.41   0.003215   16.25  0.002331  ( 0.020222 -0.038933 -0.020157)
 21:    485.80   0.011526   58.25  0.007404  ( 0.083799  0.013001  0.014582)
 22:    522.74   0.007242   36.60  0.004323  ( 0.035996 -0.031131 -0.045367)
 23:    553.14   0.022030  111.33  0.012429  (-0.053906 -0.088652 -0.040786)
 24:    589.16   0.009279   46.89  0.004915  ( 0.048628  0.005548  0.050195)
 25:    620.78   0.011678   59.01  0.005870  ( 0.045300  0.051296  0.034453)
 26:    635.09   0.012102   61.16  0.005947  ( 0.067463  0.035301 -0.012222)
 27:    675.70   0.009831   49.68  0.004540  ( 0.041029  0.014380  0.051481)
 28:    720.86   0.000661    3.34  0.000286  ( 0.008545 -0.014511  0.001561)
 29:    755.95   0.001722    8.70  0.000711  ( 0.023299 -0.002857  0.012648)
 30:    790.25   0.003328   16.82  0.001314  (-0.007635 -0.004939 -0.035096)
 31:    864.21   0.006432   32.51  0.002323  (-0.016812  0.014810  0.042669)
 32:    883.03   0.000518    2.62  0.000183  (-0.007162  0.007323 -0.008848)
 33:    901.24   0.003406   17.21  0.001180  ( 0.005804 -0.002718 -0.033741)
 34:    915.93   0.000286    1.44  0.000097  (-0.005608  0.004691 -0.006620)
 35:    977.75   0.001210    6.11  0.000386  ( 0.015903 -0.009161  0.007028)
 36:   1046.44   0.000826    4.18  0.000246  ( 0.002639  0.014417  0.005620)
 37:   1048.13   0.003148   15.91  0.000937  (-0.020773  0.022241 -0.003326)
 38:   1066.63   0.001322    6.68  0.000387  (-0.017163 -0.009234  0.002609)
 39:   1097.82   0.001790    9.05  0.000509  ( 0.022532 -0.000232  0.001008)
 40:   1131.07   0.004988   25.21  0.001376  ( 0.008451 -0.035990 -0.003075)
 41:   1137.35   0.009560   48.31  0.002623  ( 0.030164 -0.037203 -0.018146)
 42:   1178.79   0.000485    2.45  0.000128  ( 0.001226  0.006440  0.009240)
 43:   1251.28   0.005646   28.53  0.001408  (-0.031457 -0.017419  0.010732)
 44:   1278.20   0.013190   66.66  0.003220  ( 0.018490 -0.006982 -0.053194)
 45:   1288.55   0.000494    2.50  0.000120  (-0.003616  0.000701  0.010305)
 46:   1299.18   0.006356   32.12  0.001527  ( 0.033185 -0.020606  0.000860)
 47:   1333.67   0.030894  156.12  0.007229  ( 0.051658 -0.026986 -0.061903)
 48:   1342.09   0.007783   39.33  0.001810  ( 0.011368 -0.006818 -0.040424)
 49:   1374.20   0.015907   80.39  0.003612  ( 0.012675 -0.038445 -0.044425)
 50:   1400.28   0.004309   21.77  0.000960  (-0.000703 -0.001084  0.030961)
 51:   1424.69   0.000072    0.36  0.000016  (-0.000273 -0.001782 -0.003528)
 52:   1476.95   0.002660   13.44  0.000562  ( 0.003655  0.014722 -0.018219)
 53:   1478.09   0.000963    4.87  0.000203  (-0.013359 -0.004396 -0.002350)
 54:   1504.75   0.002593   13.10  0.000538  (-0.008499  0.020363  0.007133)
 55:   1557.00   0.010092   51.00  0.002023  (-0.015264 -0.004336  0.042081)
 56:   1561.05   0.040161  202.96  0.008028  (-0.082037  0.032497 -0.015568)
 57:   1587.26   0.049587  250.59  0.009749  ( 0.038541  0.064571  0.063985)
 58:   1632.12   0.027290  137.91  0.005218  (-0.012525 -0.071076  0.003027)
 59:   1669.64   0.033709  170.35  0.006300  (-0.043165  0.065019  0.014479)
 60:   1737.17   0.028734  145.21  0.005162  ( 0.004552  0.071244 -0.008090)
 61:   1794.66   0.038875  196.46  0.006760  ( 0.065952  0.048517 -0.007500)
 62:   1906.11   0.059230  299.33  0.009697  ( 0.036064 -0.033072  0.085456)
 63:   3117.33   0.000294    1.49  0.000029  (-0.003659 -0.001883 -0.003542)
 64:   3124.12   0.000647    3.27  0.000065  ( 0.002666 -0.006801 -0.003361)
 65:   3132.04   0.000299    1.51  0.000030  (-0.003248 -0.003986 -0.001830)
 66:   3175.64   0.000085    0.43  0.000008  (-0.000820 -0.002736 -0.000423)
 67:   3181.13   0.000389    1.97  0.000038  ( 0.005061 -0.003529  0.000358)
 68:   3202.50   0.000099    0.50  0.000010  (-0.002819  0.001295 -0.000081)
 69:   3246.36   0.060761  307.06  0.005841  ( 0.049074 -0.045098 -0.037399)
 70:   3360.38   0.031181  157.58  0.002896  (-0.031040 -0.039885 -0.018477)
 71:   3540.08   0.028462  143.83  0.002509  (-0.020392  0.044744 -0.009541)
 72:   3665.05   0.012302   62.17  0.001048  (-0.023444 -0.022312  0.000245)
 73:   3673.08   0.016384   82.80  0.001392  ( 0.005324 -0.034826  0.012279)
 74:   3795.11   0.022900  115.73  0.001883  (-0.015222  0.002653 -0.040549)

--------------------------
THERMOCHEMISTRY AT 298.15K
--------------------------

Temperature         ... 298.15 K
Pressure            ... 1.00 atm
Total Mass          ... 190.18 AMU

Throughout the following assumptions are being made:
  (1) The electronic state is orbitally nondegenerate
  (2) There are no thermally accessible electronically excited states
  (3) Hindered rotations indicated by low frequency modes are not
      treated as such but are treated as vibrations and this may
      cause some error
  (4) All equations used are the standard statistical mechanics
      equations for an ideal gas
  (5) All vibrations are strictly harmonic

freq.      62.17  E(vib)   ...       0.51
freq.      69.59  E(vib)   ...       0.50
freq.     101.30  E(vib)   ...       0.46
freq.     132.25  E(vib)   ...       0.42
freq.     150.72  E(vib)   ...       0.40
freq.     156.16  E(vib)   ...       0.40
freq.     202.00  E(vib)   ...       0.35
freq.     219.99  E(vib)   ...       0.33
freq.     272.24  E(vib)   ...       0.29
freq.     285.44  E(vib)   ...       0.28
freq.     293.53  E(vib)   ...       0.27
freq.     316.27  E(vib)   ...       0.25
freq.     369.90  E(vib)   ...       0.21
freq.     403.04  E(vib)   ...       0.19
freq.     430.41  E(vib)   ...       0.18
freq.     485.80  E(vib)   ...       0.15
freq.     522.74  E(vib)   ...       0.13
freq.     553.14  E(vib)   ...       0.12
freq.     589.16  E(vib)   ...       0.10
freq.     620.78  E(vib)   ...       0.09
freq.     635.09  E(vib)   ...       0.09
freq.     675.70  E(vib)   ...       0.08
freq.     720.86  E(vib)   ...       0.07
freq.     755.95  E(vib)   ...       0.06
freq.     790.25  E(vib)   ...       0.05
freq.     864.21  E(vib)   ...       0.04
freq.     883.03  E(vib)   ...       0.04
freq.     901.24  E(vib)   ...       0.03
freq.     915.93  E(vib)   ...       0.03
freq.     977.75  E(vib)   ...       0.03
freq.    1046.44  E(vib)   ...       0.02
freq.    1048.13  E(vib)   ...       0.02
freq.    1066.63  E(vib)   ...       0.02
freq.    1097.82  E(vib)   ...       0.02
freq.    1131.07  E(vib)   ...       0.01
freq.    1137.35  E(vib)   ...       0.01
freq.    1178.79  E(vib)   ...       0.01
freq.    1251.28  E(vib)   ...       0.01
freq.    1278.20  E(vib)   ...       0.01
freq.    1288.55  E(vib)   ...       0.01
freq.    1299.18  E(vib)   ...       0.01
freq.    1333.67  E(vib)   ...       0.01
freq.    1342.09  E(vib)   ...       0.01
freq.    1374.20  E(vib)   ...       0.01
freq.    1400.28  E(vib)   ...       0.00
freq.    1424.69  E(vib)   ...       0.00
freq.    1476.95  E(vib)   ...       0.00
freq.    1478.09  E(vib)   ...       0.00
freq.    1504.75  E(vib)   ...       0.00
freq.    1557.00  E(vib)   ...       0.00
freq.    1561.05  E(vib)   ...       0.00
freq.    1587.26  E(vib)   ...       0.00
freq.    1632.12  E(vib)   ...       0.00
freq.    1669.64  E(vib)   ...       0.00
freq.    1737.17  E(vib)   ...       0.00
freq.    1794.66  E(vib)   ...       0.00
freq.    1906.11  E(vib)   ...       0.00
freq.    3117.33  E(vib)   ...       0.00
freq.    3124.12  E(vib)   ...       0.00
freq.    3132.04  E(vib)   ...       0.00
freq.    3175.64  E(vib)   ...       0.00
freq.    3181.13  E(vib)   ...       0.00
freq.    3202.50  E(vib)   ...       0.00
freq.    3246.36  E(vib)   ...       0.00
freq.    3360.38  E(vib)   ...       0.00
freq.    3540.08  E(vib)   ...       0.00
freq.    3665.05  E(vib)   ...       0.00
freq.    3673.08  E(vib)   ...       0.00
freq.    3795.11  E(vib)   ...       0.00

------------
INNER ENERGY
------------

The inner energy is: U= E(el) + E(ZPE) + E(vib) + E(rot) + E(trans)
    E(el)   - is the total energy from the electronic structure calculation
              = E(kin-el) + E(nuc-el) + E(el-el) + E(nuc-nuc)
    E(ZPE)  - the the zero temperature vibrational energy from the frequency calculation
    E(vib)  - the the finite temperature correction to E(ZPE) due to population
              of excited vibrational states
    E(rot)  - is the rotational thermal energy
    E(trans)- is the translational thermal energy

Summary of contributions to the inner energy U:
Electronic energy                ...   -701.33982220 Eh
Zero point energy                ...      0.20998474 Eh     131.77 kcal/mol
Thermal vibrational correction   ...      0.01007914 Eh       6.32 kcal/mol
Thermal rotational correction    ...      0.00141627 Eh       0.89 kcal/mol
Thermal translational correction ...      0.00141627 Eh       0.89 kcal/mol
-----------------------------------------------------------------------
Total thermal energy                   -701.11692578 Eh

Summary of corrections to the electronic energy:
(perhaps to be used in another calculation)
Total thermal correction                  0.01291169 Eh       8.10 kcal/mol
Non-thermal (ZPE) correction              0.20998474 Eh     131.77 kcal/mol
-----------------------------------------------------------------------
Total correction                          0.22289642 Eh     139.87 kcal/mol

--------
ENTHALPY
--------

The enthalpy is H = U + kB*T
                kB is Boltzmann's constant
Total free energy                 ...   -701.11692578 Eh
Thermal Enthalpy correction       ...      0.00094421 Eh       0.59 kcal/mol
-----------------------------------------------------------------------
Total Enthalpy                    ...   -701.11598157 Eh

Note: Only C1 symmetry has been detected, increase convergence thresholds
      if your molecule has a higher symmetry. Symmetry factor of 1.0 is
      used for the rotational entropy correction.

Note: Rotational entropy computed according to Herzberg
Infrared and Raman Spectra, Chapter V,1, Van Nostrand Reinhold, 1945
Point Group:  C1, Symmetry Number:   1
Rotational constants in cm-1:     0.039789     0.023740     0.018393

Vibrational entropy computed according to the QRRHO of S. Grimme
Chem.Eur.J. 2012 18 9955

-------
ENTROPY
-------

The entropy contributions are T*S = T*(S(el)+S(vib)+S(rot)+S(trans))
     S(el)   - electronic entropy
     S(vib)  - vibrational entropy
     S(rot)  - rotational entropy
     S(trans)- translational entropy
The entropies will be listed as multiplied by the temperature to get
units of energy

Electronic entropy                ...      0.00000000 Eh      0.00 kcal/mol
Vibrational entropy               ...      0.01735295 Eh     10.89 kcal/mol
Rotational entropy                ...      0.01468517 Eh      9.22 kcal/mol
Translational entropy             ...      0.01978162 Eh     12.41 kcal/mol
-----------------------------------------------------------------------

                             ****ORCA TERMINATED NORMALLY****
TOTAL RUN TIME: 0 days 1 hours 57 minutes 49 seconds 354 msec
