                         Program Version 5.0.2 -  RELEASE  -
|  1> # GGG-H_tt_021 (old 107)
|  2> ! wB97X-D3BJ Opt Freq def2-TZVPP def2/J RIJCOSX VeryTightSCF
|  3> ! PAL8 defgrid3 VeryTightOpt
|  4>
|  5> %maxcore 4096
|  6>
|  7> %geom
|  8>   MaxIter 300
|  9>   # MaxStep 0.1
| 10>   Calc_Hess true
| 11>   Recalc_Hess 10
| 12> end
| 13>
| 14> %chelpg
| 15>   grid 0.1
| 16>   rmax 3.0
| 17> end
| 18>
| 19> * xyz 1 1
| 20>  N   -2.461978   +0.100418   +1.842945
| 21>  H   -2.971336   -0.024151   +0.969039
| 22>  C   -2.624272   -0.915543   +2.856700
| 23>  C   -1.673259   -2.101174   +2.578830
| 24>  H   -2.373066   -0.486895   +3.842700
| 25>  H   -3.669383   -1.268759   +2.887055
| 26>  O   -0.972488   -2.179848   +1.582438
| 27>  C   -1.261288   +0.779924   +1.820054
| 28>  C   -0.779802   +1.180482   +0.415674
| 29>  O   -0.536636   +0.870737   +2.800194
| 30>  N   +0.000000   +0.000000   +0.000000
| 31>  H   -0.110761   +2.049728   +0.463511
| 32>  H   -1.596671   +1.366125   -0.301432
| 33>  H   -0.453013   -0.900876   +0.232548
| 34>  C   +1.334938   +0.000000   +0.000000
| 35>  C   +2.034091   -1.385629   -0.015390
| 36>  O   +2.081309   +0.995380   +0.000000
| 37>  H   +1.839069   -1.933925   -0.949238
| 38>  H   +1.722182   -2.005492   +0.839186
| 39>  O   -1.634029   -3.070248   +3.499707
| 40>  H   -2.228022   -2.874723   +4.252292
| 41>  N   +3.483470   -1.015959   +0.074767
| 42>  H   +3.363849   +0.084560   +0.035244
| 43>  H   +3.928038   -1.294022   +0.960715
| 44>  H   +4.058617   -1.360470   -0.705692
| 45> *
| 46>
| 47>                          ****END OF INPUT****
 Total Charge           Charge          ....    1
 Multiplicity           Mult            ....    1
 Number of Electrons    NEL             ....  100
Dispersion correction           -0.043286891
FINAL SINGLE POINT ENERGY      -701.333316691553
Dispersion correction            ... done
Dispersion correction in the Hessian             ... done   (      0.6 sec)
Dispersion correction           -0.043443013
FINAL SINGLE POINT ENERGY      -701.336923748850
Dispersion correction            ... done
Dispersion correction           -0.043464459
FINAL SINGLE POINT ENERGY      -701.337015041453
FINAL SINGLE POINT ENERGY      -701.337169788633
FINAL SINGLE POINT ENERGY      -701.337188672732
FINAL SINGLE POINT ENERGY      -701.337200673042
FINAL SINGLE POINT ENERGY      -701.337213437167
FINAL SINGLE POINT ENERGY      -701.337221217603
FINAL SINGLE POINT ENERGY      -701.337232214859
FINAL SINGLE POINT ENERGY      -701.337239192121
FINAL SINGLE POINT ENERGY      -701.337245314269
FINAL SINGLE POINT ENERGY      -701.337259114293
Dispersion correction           -0.043742625
FINAL SINGLE POINT ENERGY      -701.337256880106
Dispersion correction            ... done
Dispersion correction           -0.043747231
FINAL SINGLE POINT ENERGY      -701.337257330534
Dispersion correction            ... done
                    ***********************HURRAY********************

CARTESIAN COORDINATES (ANGSTROEM)
---------------------------------
  N     -2.438066    0.077331    1.830664
  H     -2.957379   -0.035254    0.976935
  C     -2.584457   -0.940461    2.837774
  C     -1.583792   -2.078297    2.602112
  H     -2.410802   -0.512609    3.826569
  H     -3.597202   -1.346840    2.813934
  O     -0.929308   -2.190424    1.595121
  C     -1.237829    0.731099    1.779471
  C     -0.804056    1.194599    0.390090
  O     -0.485414    0.784478    2.726904
  N     -0.020057    0.061357   -0.113460
  H     -0.160052    2.065975    0.466120
  H     -1.635704    1.400221   -0.283789
  H     -0.474714   -0.839291   -0.013341
  C      1.308229    0.043168   -0.001062
  C      1.964907   -1.348454   -0.067566
  O      2.049139    1.007079    0.141797
  H      1.836190   -1.806821   -1.046166
  H      1.561134   -2.007892    0.699761
  O     -1.470300   -2.975557    3.579536
  H     -2.019793   -2.752332    4.339197
  N      3.411704   -1.069395    0.178919
  H      3.411993   -0.009088    0.222619
  H      3.742071   -1.446216    1.064650
  H      4.023117   -1.396736   -0.564941

 Multiplicity           Mult            ....    1
 Number of Electrons    NEL             ....  100
 Basis Dimension        Dim             ....  571

ORBITAL ENERGIES
----------------

  NO   OCC          E(Eh)            E(eV)
   0   2.0000     -19.393360      -527.7201
   1   2.0000     -19.356165      -526.7080
   2   2.0000     -19.337064      -526.1883
   3   2.0000     -19.310160      -525.4562
   4   2.0000     -14.698421      -399.9644
   5   2.0000     -14.594247      -397.1297
   6   2.0000     -14.569834      -396.4653
   7   2.0000     -10.546808      -286.9932
   8   2.0000     -10.542819      -286.8847
   9   2.0000     -10.508858      -285.9606
  10   2.0000     -10.505533      -285.8701
  11   2.0000     -10.455855      -284.5183
  12   2.0000     -10.451676      -284.4046
  13   2.0000      -1.376581       -37.4587
  14   2.0000      -1.359180       -36.9852
  15   2.0000      -1.311919       -35.6991
  16   2.0000      -1.296639       -35.2834
  17   2.0000      -1.288788       -35.0697
  18   2.0000      -1.224800       -33.3285
  19   2.0000      -1.195408       -32.5287
  20   2.0000      -1.059615       -28.8336
  21   2.0000      -1.017894       -27.6983
  22   2.0000      -0.974776       -26.5250
  23   2.0000      -0.884582       -24.0707
  24   2.0000      -0.879977       -23.9454
  25   2.0000      -0.879098       -23.9215
  26   2.0000      -0.860227       -23.4080
  27   2.0000      -0.848441       -23.0872
  28   2.0000      -0.810025       -22.0419
  29   2.0000      -0.789301       -21.4780
  30   2.0000      -0.768273       -20.9058
  31   2.0000      -0.759546       -20.6683
  32   2.0000      -0.748162       -20.3585
  33   2.0000      -0.732649       -19.9364
  34   2.0000      -0.722525       -19.6609
  35   2.0000      -0.713206       -19.4073
  36   2.0000      -0.698553       -19.0086
  37   2.0000      -0.672603       -18.3025
  38   2.0000      -0.668547       -18.1921
  39   2.0000      -0.664270       -18.0757
  40   2.0000      -0.642865       -17.4932
  41   2.0000      -0.633623       -17.2418
  42   2.0000      -0.628359       -17.0985
  43   2.0000      -0.612068       -16.6552
  44   2.0000      -0.564935       -15.3727
  45   2.0000      -0.554319       -15.0838
  46   2.0000      -0.543110       -14.7788
  47   2.0000      -0.530237       -14.4285
  48   2.0000      -0.501808       -13.6549
  49   2.0000      -0.485647       -13.2151
  50   0.0000      -0.079001        -2.1497
  51   0.0000      -0.066738        -1.8160
  52   0.0000      -0.036099        -0.9823
  53   0.0000      -0.029992        -0.8161
  54   0.0000      -0.019796        -0.5387

MULLIKEN ATOMIC CHARGES
-----------------------
   0 N :   -0.204220
   1 H :    0.179561
   2 C :   -0.136747
   3 C :    0.366388
   4 H :    0.139393
   5 H :    0.154560
   6 O :   -0.387998
   7 C :    0.204466
   8 C :   -0.066203
   9 O :   -0.330091
  10 N :   -0.166580
  11 H :    0.142595
  12 H :    0.136155
  13 H :    0.187526
  14 C :    0.275130
  15 C :   -0.169367
  16 O :   -0.346978
  17 H :    0.172649
  18 H :    0.174575
  19 O :   -0.209719
  20 H :    0.229056
  21 N :   -0.049950
  22 H :    0.232204
  23 H :    0.238381
  24 H :    0.235211
Sum of atomic charges:    1.0000000

LOEWDIN ATOMIC CHARGES
----------------------
   0 N :    0.319353
   1 H :   -0.024000
   2 C :   -0.056029
   3 C :   -0.421069
   4 H :    0.039046
   5 H :    0.037623
   6 O :    0.097607
   7 C :   -0.389188
   8 C :   -0.007274
   9 O :    0.112859
  10 N :    0.343137
  11 H :    0.041398
  12 H :    0.024539
  13 H :   -0.019906
  14 C :   -0.373063
  15 C :    0.044605
  16 O :    0.137581
  17 H :    0.037229
  18 H :    0.037182
  19 O :    0.404027
  20 H :   -0.085272
  21 N :    0.602445
  22 H :    0.001869
  23 H :    0.049444
  24 H :    0.045858

  Mayer bond orders larger than 0.100000
B(  0-N ,  1-H ) :   0.9719 B(  0-N ,  2-C ) :   0.9510 B(  0-N ,  7-C ) :   1.1954
B(  2-C ,  3-C ) :   0.9362 B(  2-C ,  4-H ) :   0.9743 B(  2-C ,  5-H ) :   0.9696
B(  3-C ,  6-O ) :   1.9475 B(  3-C , 19-O ) :   1.2666 B(  7-C ,  8-C ) :   0.9292
B(  7-C ,  9-O ) :   2.0595 B(  8-C , 10-N ) :   0.8751 B(  8-C , 11-H ) :   0.9910
B(  8-C , 12-H ) :   0.9971 B( 10-N , 13-H ) :   0.9409 B( 10-N , 14-C ) :   1.3686
B( 14-C , 15-C ) :   0.9152 B( 14-C , 16-O ) :   1.8879 B( 15-C , 17-H ) :   0.9901
B( 15-C , 18-H ) :   0.9703 B( 15-C , 21-N ) :   0.8948 B( 16-O , 22-H ) :   0.1882
B( 19-O , 20-H ) :   0.9705 B( 21-N , 22-H ) :   0.8248 B( 21-N , 23-H ) :   0.9400
B( 21-N , 24-H ) :   0.9413

Dispersion correction           -0.043747037
FINAL SINGLE POINT ENERGY      -701.337257316945

DIPOLE MOMENT
-------------
                                X             Y             Z
Electronic contribution:     -1.35930       0.42083       2.11424
Nuclear contribution   :      3.25427      -1.97197      -3.54253
                        -----------------------------------------
Total Dipole Moment    :      1.89497      -1.55114      -1.42829
                        -----------------------------------------
Magnitude (a.u.)       :      2.83496
Magnitude (Debye)      :      7.20589

Dispersion correction in the Hessian             ... done   (      0.6 sec)

VIBRATIONAL FREQUENCIES
-----------------------

Scaling factor for frequencies =  1.000000000  (already applied!)

   0:         0.00 cm**-1
   1:         0.00 cm**-1
   2:         0.00 cm**-1
   3:         0.00 cm**-1
   4:         0.00 cm**-1
   5:         0.00 cm**-1
   6:        19.54 cm**-1
   7:        41.45 cm**-1
   8:        60.21 cm**-1
   9:        80.32 cm**-1
  10:        83.77 cm**-1
  11:        98.56 cm**-1
  12:       139.29 cm**-1
  13:       191.53 cm**-1
  14:       257.72 cm**-1
  15:       288.16 cm**-1
  16:       299.75 cm**-1
  17:       347.21 cm**-1
  18:       355.95 cm**-1
  19:       413.39 cm**-1
  20:       471.76 cm**-1
  21:       482.99 cm**-1
  22:       498.78 cm**-1
  23:       531.37 cm**-1
  24:       580.54 cm**-1
  25:       585.58 cm**-1
  26:       654.24 cm**-1
  27:       665.41 cm**-1
  28:       712.04 cm**-1
  29:       754.36 cm**-1
  30:       806.40 cm**-1
  31:       874.81 cm**-1
  32:       886.29 cm**-1
  33:       920.25 cm**-1
  34:       931.17 cm**-1
  35:      1004.41 cm**-1
  36:      1026.63 cm**-1
  37:      1060.14 cm**-1
  38:      1081.30 cm**-1
  39:      1113.08 cm**-1
  40:      1119.21 cm**-1
  41:      1154.20 cm**-1
  42:      1209.38 cm**-1
  43:      1235.43 cm**-1
  44:      1291.68 cm**-1
  45:      1304.58 cm**-1
  46:      1314.56 cm**-1
  47:      1324.47 cm**-1
  48:      1333.34 cm**-1
  49:      1373.57 cm**-1
  50:      1397.39 cm**-1
  51:      1425.80 cm**-1
  52:      1442.34 cm**-1
  53:      1466.09 cm**-1
  54:      1501.23 cm**-1
  55:      1506.48 cm**-1
  56:      1554.16 cm**-1
  57:      1634.68 cm**-1
  58:      1649.11 cm**-1
  59:      1669.58 cm**-1
  60:      1792.60 cm**-1
  61:      1817.23 cm**-1
  62:      1842.89 cm**-1
  63:      2902.91 cm**-1
  64:      3101.61 cm**-1
  65:      3119.16 cm**-1
  66:      3127.76 cm**-1
  67:      3153.68 cm**-1
  68:      3191.17 cm**-1
  69:      3204.60 cm**-1
  70:      3516.52 cm**-1
  71:      3557.62 cm**-1
  72:      3578.65 cm**-1
  73:      3674.63 cm**-1
  74:      3840.39 cm**-1

IR SPECTRUM
-----------

 Mode   freq       eps      Int      T**2         TX        TY        TZ
       cm**-1   L/(mol*cm) km/mol    a.u.
----------------------------------------------------------------------------
  6:     19.54   0.001167    5.90  0.018638  ( 0.117869  0.028615 -0.062656)
  7:     41.45   0.002707   13.68  0.020382  (-0.013573 -0.065617 -0.126066)
  8:     60.21   0.001924    9.72  0.009972  ( 0.043243  0.081284 -0.038662)
  9:     80.32   0.005242   26.49  0.020369  (-0.010804 -0.016675  0.141330)
 10:     83.77   0.000276    1.39  0.001027  (-0.022812  0.020500 -0.009294)
 11:     98.56   0.002750   13.90  0.008706  ( 0.087280 -0.031718  0.009068)
 12:    139.29   0.002159   10.91  0.004837  ( 0.026158  0.063169 -0.012727)
 13:    191.53   0.001769    8.94  0.002882  ( 0.012580 -0.050507  0.013130)
 14:    257.72   0.002079   10.50  0.002517  ( 0.047134 -0.015640 -0.007118)
 15:    288.16   0.002506   12.67  0.002714  (-0.015403 -0.049368 -0.006315)
 16:    299.75   0.001230    6.22  0.001281  ( 0.014015 -0.028789 -0.015992)
 17:    347.21   0.004721   23.86  0.004243  ( 0.002915  0.057696 -0.030094)
 18:    355.95   0.015731   79.50  0.013791  (-0.101202  0.056480  0.018956)
 19:    413.39   0.018891   95.47  0.014261  ( 0.104613 -0.056439  0.011472)
 20:    471.76   0.002593   13.10  0.001715  ( 0.041251 -0.003648 -0.000227)
 21:    482.99   0.010206   51.58  0.006594  (-0.049194 -0.063806 -0.010136)
 22:    498.78   0.008861   44.78  0.005544  (-0.065605 -0.006197 -0.034659)
 23:    531.37   0.018131   91.63  0.010648  ( 0.091741 -0.047146 -0.003000)
 24:    580.54   0.002226   11.25  0.001196  ( 0.015266  0.029158  0.010639)
 25:    585.58   0.002247   11.36  0.001198  (-0.018365 -0.017024 -0.023883)
 26:    654.24   0.007910   39.97  0.003773  ( 0.054977 -0.017520 -0.021058)
 27:    665.41   0.014325   72.39  0.006718  ( 0.010603  0.009314  0.080741)
 28:    712.04   0.001711    8.65  0.000750  ( 0.004406 -0.002219 -0.026934)
 29:    754.36   0.010495   53.04  0.004342  (-0.005320  0.000468 -0.065674)
 30:    806.40   0.002608   13.18  0.001009  (-0.014560  0.014796  0.024048)
 31:    874.81   0.001846    9.33  0.000659  (-0.022686  0.005176 -0.010822)
 32:    886.29   0.001898    9.59  0.000668  (-0.016300  0.014879 -0.013467)
 33:    920.25   0.005038   25.46  0.001708  ( 0.024801 -0.023039  0.023716)
 34:    931.17   0.002314   11.69  0.000775  ( 0.002506 -0.005052  0.027270)
 35:   1004.41   0.000476    2.41  0.000148  (-0.009272  0.007555  0.002224)
 36:   1026.63   0.000702    3.55  0.000214  (-0.007532 -0.009567  0.008079)
 37:   1060.14   0.002131   10.77  0.000627  ( 0.024853  0.002226  0.002186)
 38:   1081.30   0.002881   14.56  0.000831  ( 0.019452 -0.021186  0.002038)
 39:   1113.08   0.008348   42.19  0.002341  ( 0.032695 -0.034083 -0.010484)
 40:   1119.21   0.013488   68.16  0.003761  (-0.041550  0.044631  0.006524)
 41:   1154.20   0.001369    6.92  0.000370  ( 0.009933 -0.013579  0.009336)
 42:   1209.38   0.001334    6.74  0.000344  ( 0.002746  0.006080 -0.017312)
 43:   1235.43   0.018755   94.78  0.004737  (-0.058044 -0.024500  0.027715)
 44:   1291.68   0.006181   31.24  0.001493  ( 0.005636  0.027776 -0.026269)
 45:   1304.58   0.013465   68.04  0.003221  ( 0.033637  0.029805 -0.034656)
 46:   1314.56   0.039072  197.45  0.009275  ( 0.000980  0.075951 -0.059208)
 47:   1324.47   0.002938   14.85  0.000692  (-0.011072  0.023615  0.003464)
 48:   1333.34   0.026598  134.41  0.006225  ( 0.007632 -0.048742  0.061572)
 49:   1373.57   0.000520    2.63  0.000118  (-0.010374  0.001835  0.002671)
 50:   1397.39   0.036239  183.14  0.008093  (-0.085509  0.027801  0.002848)
 51:   1425.80   0.023010  116.28  0.005036  (-0.004750  0.060984 -0.035979)
 52:   1442.34   0.060860  307.56  0.013168  (-0.112387 -0.022664 -0.004819)
 53:   1466.09   0.003944   19.93  0.000839  ( 0.006083 -0.002135 -0.028247)
 54:   1501.23   0.005722   28.92  0.001189  (-0.016754 -0.025064  0.016749)
 55:   1506.48   0.008512   43.01  0.001763  (-0.038238  0.017332 -0.000759)
 56:   1554.16   0.037892  191.49  0.007608  ( 0.069809  0.047336 -0.022238)
 57:   1634.68   0.025032  126.50  0.004779  (-0.062755  0.021317  0.019652)
 58:   1649.11   0.008448   42.69  0.001599  (-0.025145  0.028628 -0.012117)
 59:   1669.58   0.006112   30.89  0.001142  ( 0.013289 -0.007921 -0.030051)
 60:   1792.60   0.038193  193.01  0.006649  (-0.060142 -0.022035  0.050461)
 61:   1817.23   0.067869  342.98  0.011655  ( 0.079809  0.041983  0.059354)
 62:   1842.89   0.054419  275.01  0.009215  ( 0.064434  0.008948 -0.070592)
 63:   2902.91   0.075989  384.01  0.008169  ( 0.044232 -0.078727 -0.003788)
 64:   3101.61   0.001897    9.59  0.000191  ( 0.004457  0.011531 -0.006168)
 65:   3119.16   0.002383   12.04  0.000238  (-0.014136  0.005102 -0.003539)
 66:   3127.76   0.000892    4.51  0.000089  ( 0.000482  0.009025 -0.002704)
 67:   3153.68   0.000058    0.29  0.000006  (-0.001824 -0.001404  0.000630)
 68:   3191.17   0.001007    5.09  0.000099  ( 0.005362  0.001737 -0.008170)
 69:   3204.60   0.000183    0.93  0.000018  ( 0.001593  0.003657 -0.001397)
 70:   3516.52   0.022046  111.41  0.001956  (-0.038035  0.022236 -0.003916)
 71:   3557.62   0.031805  160.73  0.002790  (-0.034113 -0.036161  0.017845)
 72:   3578.65   0.020570  103.95  0.001794  (-0.010148 -0.000026  0.041118)
 73:   3674.63   0.009092   45.95  0.000772  (-0.020749 -0.003654 -0.018117)
 74:   3840.39   0.022174  112.06  0.001802  ( 0.018124  0.006393 -0.037848)

--------------------------
THERMOCHEMISTRY AT 298.15K
--------------------------

Temperature         ... 298.15 K
Pressure            ... 1.00 atm
Total Mass          ... 190.18 AMU

Throughout the following assumptions are being made:
  (1) The electronic state is orbitally nondegenerate
  (2) There are no thermally accessible electronically excited states
  (3) Hindered rotations indicated by low frequency modes are not
      treated as such but are treated as vibrations and this may
      cause some error
  (4) All equations used are the standard statistical mechanics
      equations for an ideal gas
  (5) All vibrations are strictly harmonic

freq.      19.54  E(vib)   ...       0.56
freq.      41.45  E(vib)   ...       0.54
freq.      60.21  E(vib)   ...       0.51
freq.      80.32  E(vib)   ...       0.49
freq.      83.77  E(vib)   ...       0.48
freq.      98.56  E(vib)   ...       0.46
freq.     139.29  E(vib)   ...       0.42
freq.     191.53  E(vib)   ...       0.36
freq.     257.72  E(vib)   ...       0.30
freq.     288.16  E(vib)   ...       0.27
freq.     299.75  E(vib)   ...       0.26
freq.     347.21  E(vib)   ...       0.23
freq.     355.95  E(vib)   ...       0.22
freq.     413.39  E(vib)   ...       0.19
freq.     471.76  E(vib)   ...       0.15
freq.     482.99  E(vib)   ...       0.15
freq.     498.78  E(vib)   ...       0.14
freq.     531.37  E(vib)   ...       0.13
freq.     580.54  E(vib)   ...       0.11
freq.     585.58  E(vib)   ...       0.11
freq.     654.24  E(vib)   ...       0.08
freq.     665.41  E(vib)   ...       0.08
freq.     712.04  E(vib)   ...       0.07
freq.     754.36  E(vib)   ...       0.06
freq.     806.40  E(vib)   ...       0.05
freq.     874.81  E(vib)   ...       0.04
freq.     886.29  E(vib)   ...       0.04
freq.     920.25  E(vib)   ...       0.03
freq.     931.17  E(vib)   ...       0.03
freq.    1004.41  E(vib)   ...       0.02
freq.    1026.63  E(vib)   ...       0.02
freq.    1060.14  E(vib)   ...       0.02
freq.    1081.30  E(vib)   ...       0.02
freq.    1113.08  E(vib)   ...       0.01
freq.    1119.21  E(vib)   ...       0.01
freq.    1154.20  E(vib)   ...       0.01
freq.    1209.38  E(vib)   ...       0.01
freq.    1235.43  E(vib)   ...       0.01
freq.    1291.68  E(vib)   ...       0.01
freq.    1304.58  E(vib)   ...       0.01
freq.    1314.56  E(vib)   ...       0.01
freq.    1324.47  E(vib)   ...       0.01
freq.    1333.34  E(vib)   ...       0.01
freq.    1373.57  E(vib)   ...       0.01
freq.    1397.39  E(vib)   ...       0.00
freq.    1425.80  E(vib)   ...       0.00
freq.    1442.34  E(vib)   ...       0.00
freq.    1466.09  E(vib)   ...       0.00
freq.    1501.23  E(vib)   ...       0.00
freq.    1506.48  E(vib)   ...       0.00
freq.    1554.16  E(vib)   ...       0.00
freq.    1634.68  E(vib)   ...       0.00
freq.    1649.11  E(vib)   ...       0.00
freq.    1669.58  E(vib)   ...       0.00
freq.    1792.60  E(vib)   ...       0.00
freq.    1817.23  E(vib)   ...       0.00
freq.    1842.89  E(vib)   ...       0.00
freq.    2902.91  E(vib)   ...       0.00
freq.    3101.61  E(vib)   ...       0.00
freq.    3119.16  E(vib)   ...       0.00
freq.    3127.76  E(vib)   ...       0.00
freq.    3153.68  E(vib)   ...       0.00
freq.    3191.17  E(vib)   ...       0.00
freq.    3204.60  E(vib)   ...       0.00
freq.    3516.52  E(vib)   ...       0.00
freq.    3557.62  E(vib)   ...       0.00
freq.    3578.65  E(vib)   ...       0.00
freq.    3674.63  E(vib)   ...       0.00
freq.    3840.39  E(vib)   ...       0.00

------------
INNER ENERGY
------------

The inner energy is: U= E(el) + E(ZPE) + E(vib) + E(rot) + E(trans)
    E(el)   - is the total energy from the electronic structure calculation
              = E(kin-el) + E(nuc-el) + E(el-el) + E(nuc-nuc)
    E(ZPE)  - the the zero temperature vibrational energy from the frequency calculation
    E(vib)  - the the finite temperature correction to E(ZPE) due to population
              of excited vibrational states
    E(rot)  - is the rotational thermal energy
    E(trans)- is the translational thermal energy

Summary of contributions to the inner energy U:
Electronic energy                ...   -701.33725732 Eh
Zero point energy                ...      0.20878739 Eh     131.02 kcal/mol
Thermal vibrational correction   ...      0.01076303 Eh       6.75 kcal/mol
Thermal rotational correction    ...      0.00141627 Eh       0.89 kcal/mol
Thermal translational correction ...      0.00141627 Eh       0.89 kcal/mol
-----------------------------------------------------------------------
Total thermal energy                   -701.11487435 Eh

Summary of corrections to the electronic energy:
(perhaps to be used in another calculation)
Total thermal correction                  0.01359557 Eh       8.53 kcal/mol
Non-thermal (ZPE) correction              0.20878739 Eh     131.02 kcal/mol
-----------------------------------------------------------------------
Total correction                          0.22238296 Eh     139.55 kcal/mol

--------
ENTHALPY
--------

The enthalpy is H = U + kB*T
                kB is Boltzmann's constant
Total free energy                 ...   -701.11487435 Eh
Thermal Enthalpy correction       ...      0.00094421 Eh       0.59 kcal/mol
-----------------------------------------------------------------------
Total Enthalpy                    ...   -701.11393014 Eh

Note: Only C1 symmetry has been detected, increase convergence thresholds
      if your molecule has a higher symmetry. Symmetry factor of 1.0 is
      used for the rotational entropy correction.

Note: Rotational entropy computed according to Herzberg
Infrared and Raman Spectra, Chapter V,1, Van Nostrand Reinhold, 1945
Point Group:  C1, Symmetry Number:   1
Rotational constants in cm-1:     0.039557     0.017361     0.013774

Vibrational entropy computed according to the QRRHO of S. Grimme
Chem.Eur.J. 2012 18 9955

-------
ENTROPY
-------

The entropy contributions are T*S = T*(S(el)+S(vib)+S(rot)+S(trans))
     S(el)   - electronic entropy
     S(vib)  - vibrational entropy
     S(rot)  - rotational entropy
     S(trans)- translational entropy
The entropies will be listed as multiplied by the temperature to get
units of energy

Electronic entropy                ...      0.00000000 Eh      0.00 kcal/mol
Vibrational entropy               ...      0.01938160 Eh     12.16 kcal/mol
Rotational entropy                ...      0.01497220 Eh      9.40 kcal/mol
Translational entropy             ...      0.01978162 Eh     12.41 kcal/mol
-----------------------------------------------------------------------

                             ****ORCA TERMINATED NORMALLY****
TOTAL RUN TIME: 0 days 2 hours 28 minutes 49 seconds 659 msec
