                         Program Version 5.0.2 -  RELEASE  -
|  1> # GGG-H_tt_006 (old 029)
|  2> ! wB97X-D3BJ Opt Freq def2-TZVPP def2/J RIJCOSX VeryTightSCF
|  3> ! PAL8 defgrid3 VeryTightOpt
|  4>
|  5> %maxcore 4096
|  6>
|  7> %geom
|  8>   MaxIter 300
|  9>   # MaxStep 0.1
| 10>   Calc_Hess true
| 11>   Recalc_Hess 10
| 12> end
| 13>
| 14> %chelpg
| 15>   grid 0.1
| 16>   rmax 3.0
| 17> end
| 18>
| 19> * xyz 1 1
| 20>  N   -3.221345   +1.626671   +0.396179
| 21>  H   -2.964892   +2.608657   +0.495263
| 22>  C   -4.639852   +1.262363   +0.543701
| 23>  C   -4.965959   +0.648413   +1.928983
| 24>  H   -5.243589   +2.170362   +0.422253
| 25>  H   -4.895463   +0.541364   -0.253216
| 26>  O   -5.733390   +1.168037   +2.700525
| 27>  C   -2.262229   +0.705664   +0.217203
| 28>  C   -0.821411   +1.202124   +0.025413
| 29>  O   -2.487990   -0.520491   +0.189716
| 30>  N   +0.000000   +0.000000   +0.000000
| 31>  H   -0.510470   +1.870678   +0.847788
| 32>  H   -0.727000   +1.765269   -0.921509
| 33>  H   -0.578543   -0.857934   +0.018235
| 34>  C   +1.326422   +0.000000   +0.000000
| 35>  C   +2.059463   -1.370464   +0.003360
| 36>  O   +2.053534   +1.012950   +0.000000
| 37>  H   +1.829186   -1.965804   -0.893046
| 38>  H   +1.823953   -1.962440   +0.900665
| 39>  O   -4.327850   -0.507514   +2.198906
| 40>  H   -3.759371   -0.768629   +1.429742
| 41>  N   +3.502230   -0.964859   +0.006480
| 42>  H   +4.026132   -1.268792   -0.826088
| 43>  H   +3.354949   +0.133436   +0.002896
| 44>  H   +4.019668   -1.261073   +0.845959
| 45> *
| 46>
| 47>                          ****END OF INPUT****
 Total Charge           Charge          ....    1
 Multiplicity           Mult            ....    1
 Number of Electrons    NEL             ....  100
Dispersion correction           -0.040840282
FINAL SINGLE POINT ENERGY      -701.331103975461
Dispersion correction            ... done
Dispersion correction in the Hessian             ... done   (      0.6 sec)
Dispersion correction           -0.041081732
FINAL SINGLE POINT ENERGY      -701.335083774784
Dispersion correction            ... done
Dispersion correction           -0.041115945
FINAL SINGLE POINT ENERGY      -701.335182065448
FINAL SINGLE POINT ENERGY      -701.335336138668
FINAL SINGLE POINT ENERGY      -701.335352975136
FINAL SINGLE POINT ENERGY      -701.335360522117
FINAL SINGLE POINT ENERGY      -701.335367600615
FINAL SINGLE POINT ENERGY      -701.335369363757
Dispersion correction           -0.041068959
FINAL SINGLE POINT ENERGY      -701.335370110099
Dispersion correction            ... done
Dispersion correction           -0.041069554
FINAL SINGLE POINT ENERGY      -701.335370128001
Dispersion correction            ... done
                    ***********************HURRAY********************

CARTESIAN COORDINATES (ANGSTROEM)
---------------------------------
  N     -3.205090    1.588940    0.404665
  H     -2.926797    2.549551    0.515522
  C     -4.624779    1.262373    0.530046
  C     -4.976121    0.717280    1.920621
  H     -5.202589    2.168298    0.370864
  H     -4.884400    0.529645   -0.236440
  O     -5.696788    1.300499    2.673855
  C     -2.272726    0.652291    0.214297
  C     -0.836381    1.142682    0.051032
  O     -2.517112   -0.551270    0.161760
  N      0.000050   -0.041011   -0.004559
  H     -0.545612    1.777110    0.890769
  H     -0.741530    1.729330   -0.865742
  H     -0.520166   -0.912870   -0.011872
  C      1.319250    0.010547    0.001858
  C      2.076392   -1.332217   -0.027385
  O      1.999501    1.034147    0.030881
  H      1.862538   -1.894486   -0.934233
  H      1.842594   -1.944720    0.841229
  O     -4.409081   -0.457522    2.234130
  H     -3.870304   -0.783953    1.495984
  N      3.514646   -0.928962   -0.000181
  H      4.032024   -1.221868   -0.826112
  H      3.429100    0.130473    0.021735
  H      4.009566   -1.256302    0.826683

 Multiplicity           Mult            ....    1
 Number of Electrons    NEL             ....  100
 Basis Dimension        Dim             ....  571

ORBITAL ENERGIES
----------------

  NO   OCC          E(Eh)            E(eV)
   0   2.0000     -19.373226      -527.1723
   1   2.0000     -19.339660      -526.2589
   2   2.0000     -19.336362      -526.1692
   3   2.0000     -19.284388      -524.7549
   4   2.0000     -14.715427      -400.4271
   5   2.0000     -14.613741      -397.6601
   6   2.0000     -14.586647      -396.9229
   7   2.0000     -10.566052      -287.5169
   8   2.0000     -10.531291      -286.5710
   9   2.0000     -10.530892      -286.5602
  10   2.0000     -10.493023      -285.5297
  11   2.0000     -10.474822      -285.0344
  12   2.0000     -10.436109      -283.9810
  13   2.0000      -1.376890       -37.4671
  14   2.0000      -1.337181       -36.3865
  15   2.0000      -1.320327       -35.9279
  16   2.0000      -1.313870       -35.7522
  17   2.0000      -1.242008       -33.7968
  18   2.0000      -1.239605       -33.7314
  19   2.0000      -1.208114       -32.8744
  20   2.0000      -1.079703       -29.3802
  21   2.0000      -1.030223       -28.0338
  22   2.0000      -0.977564       -26.6009
  23   2.0000      -0.903563       -24.5872
  24   2.0000      -0.897006       -24.4088
  25   2.0000      -0.888259       -24.1707
  26   2.0000      -0.861429       -23.4407
  27   2.0000      -0.830296       -22.5935
  28   2.0000      -0.820329       -22.3223
  29   2.0000      -0.788255       -21.4495
  30   2.0000      -0.776579       -21.1318
  31   2.0000      -0.767841       -20.8940
  32   2.0000      -0.753631       -20.5074
  33   2.0000      -0.746589       -20.3157
  34   2.0000      -0.731910       -19.9163
  35   2.0000      -0.719159       -19.5693
  36   2.0000      -0.687079       -18.6964
  37   2.0000      -0.674734       -18.3604
  38   2.0000      -0.670240       -18.2382
  39   2.0000      -0.662933       -18.0393
  40   2.0000      -0.640770       -17.4362
  41   2.0000      -0.632482       -17.2107
  42   2.0000      -0.618716       -16.8361
  43   2.0000      -0.588406       -16.0114
  44   2.0000      -0.572869       -15.5886
  45   2.0000      -0.546091       -14.8599
  46   2.0000      -0.533464       -14.5163
  47   2.0000      -0.517607       -14.0848
  48   2.0000      -0.512873       -13.9560
  49   2.0000      -0.464626       -12.6431
  50   0.0000      -0.093718        -2.5502
  51   0.0000      -0.077388        -2.1058
  52   0.0000      -0.043784        -1.1914
  53   0.0000      -0.039610        -1.0779
  54   0.0000      -0.031857        -0.8669

MULLIKEN ATOMIC CHARGES
-----------------------
   0 N :   -0.201419
   1 H :    0.196635
   2 C :   -0.119106
   3 C :    0.265495
   4 H :    0.137127
   5 H :    0.148501
   6 O :   -0.263050
   7 C :    0.342319
   8 C :   -0.121131
   9 O :   -0.444969
  10 N :   -0.177149
  11 H :    0.146426
  12 H :    0.153310
  13 H :    0.195791
  14 C :    0.271789
  15 C :   -0.160889
  16 O :   -0.362044
  17 H :    0.172999
  18 H :    0.173159
  19 O :   -0.240904
  20 H :    0.225928
  21 N :   -0.051438
  22 H :    0.238836
  23 H :    0.234501
  24 H :    0.239284
Sum of atomic charges:    1.0000000

LOEWDIN ATOMIC CHARGES
----------------------
   0 N :    0.344396
   1 H :   -0.007033
   2 C :   -0.025064
   3 C :   -0.452459
   4 H :    0.037728
   5 H :    0.033378
   6 O :    0.148201
   7 C :   -0.372244
   8 C :   -0.009242
   9 O :    0.085781
  10 N :    0.355639
  11 H :    0.038051
  12 H :    0.038476
  13 H :   -0.016138
  14 C :   -0.380884
  15 C :    0.046325
  16 O :    0.123639
  17 H :    0.038437
  18 H :    0.038621
  19 O :    0.371773
  20 H :   -0.138109
  21 N :    0.602644
  22 H :    0.048796
  23 H :    0.000144
  24 H :    0.049146

  Mayer bond orders larger than 0.100000
B(  0-N ,  1-H ) :   0.9604 B(  0-N ,  2-C ) :   0.8683 B(  0-N ,  7-C ) :   1.3535
B(  2-C ,  3-C ) :   0.9407 B(  2-C ,  4-H ) :   0.9750 B(  2-C ,  5-H ) :   0.9818
B(  3-C ,  6-O ) :   2.1577 B(  3-C , 19-O ) :   1.2278 B(  7-C ,  8-C ) :   0.9357
B(  7-C ,  9-O ) :   1.7798 B(  8-C , 10-N ) :   0.8903 B(  8-C , 11-H ) :   0.9921
B(  8-C , 12-H ) :   0.9773 B( 10-N , 13-H ) :   0.9158 B( 10-N , 14-C ) :   1.3965
B( 14-C , 15-C ) :   0.9103 B( 14-C , 16-O ) :   1.8555 B( 15-C , 17-H ) :   0.9852
B( 15-C , 18-H ) :   0.9851 B( 15-C , 21-N ) :   0.8976 B( 16-O , 23-H ) :   0.1912
B( 19-O , 20-H ) :   0.9377 B( 21-N , 22-H ) :   0.9393 B( 21-N , 23-H ) :   0.8217
B( 21-N , 24-H ) :   0.9391

Dispersion correction           -0.041069530
FINAL SINGLE POINT ENERGY      -701.335370056127

DIPOLE MOMENT
-------------
                                X             Y             Z
Electronic contribution:     -6.04620       1.14212       2.79225
Nuclear contribution   :     13.29547      -2.74952      -5.21150
                        -----------------------------------------
Total Dipole Moment    :      7.24927      -1.60740      -2.41925
                        -----------------------------------------
Magnitude (a.u.)       :      7.80951
Magnitude (Debye)      :     19.85019

Dispersion correction in the Hessian             ... done   (      0.6 sec)

VIBRATIONAL FREQUENCIES
-----------------------

Scaling factor for frequencies =  1.000000000  (already applied!)

   0:         0.00 cm**-1
   1:         0.00 cm**-1
   2:         0.00 cm**-1
   3:         0.00 cm**-1
   4:         0.00 cm**-1
   5:         0.00 cm**-1
   6:        19.87 cm**-1
   7:        48.74 cm**-1
   8:        57.48 cm**-1
   9:        73.62 cm**-1
  10:        86.18 cm**-1
  11:       101.28 cm**-1
  12:       150.87 cm**-1
  13:       178.14 cm**-1
  14:       213.64 cm**-1
  15:       255.56 cm**-1
  16:       296.54 cm**-1
  17:       303.26 cm**-1
  18:       330.66 cm**-1
  19:       399.00 cm**-1
  20:       459.62 cm**-1
  21:       499.52 cm**-1
  22:       536.18 cm**-1
  23:       561.01 cm**-1
  24:       595.39 cm**-1
  25:       621.67 cm**-1
  26:       676.54 cm**-1
  27:       699.24 cm**-1
  28:       717.39 cm**-1
  29:       737.18 cm**-1
  30:       785.63 cm**-1
  31:       878.01 cm**-1
  32:       918.66 cm**-1
  33:       932.30 cm**-1
  34:       976.67 cm**-1
  35:      1019.32 cm**-1
  36:      1027.35 cm**-1
  37:      1040.35 cm**-1
  38:      1069.66 cm**-1
  39:      1115.26 cm**-1
  40:      1115.90 cm**-1
  41:      1153.22 cm**-1
  42:      1239.88 cm**-1
  43:      1261.11 cm**-1
  44:      1266.26 cm**-1
  45:      1298.77 cm**-1
  46:      1315.92 cm**-1
  47:      1322.48 cm**-1
  48:      1358.81 cm**-1
  49:      1376.26 cm**-1
  50:      1411.23 cm**-1
  51:      1415.88 cm**-1
  52:      1437.78 cm**-1
  53:      1484.73 cm**-1
  54:      1501.46 cm**-1
  55:      1504.72 cm**-1
  56:      1589.42 cm**-1
  57:      1606.81 cm**-1
  58:      1651.52 cm**-1
  59:      1667.98 cm**-1
  60:      1748.96 cm**-1
  61:      1791.23 cm**-1
  62:      1894.66 cm**-1
  63:      2878.00 cm**-1
  64:      3089.91 cm**-1
  65:      3107.19 cm**-1
  66:      3133.09 cm**-1
  67:      3135.42 cm**-1
  68:      3194.42 cm**-1
  69:      3195.04 cm**-1
  70:      3512.99 cm**-1
  71:      3541.30 cm**-1
  72:      3573.59 cm**-1
  73:      3670.15 cm**-1
  74:      3686.68 cm**-1

IR SPECTRUM
-----------

 Mode   freq       eps      Int      T**2         TX        TY        TZ
       cm**-1   L/(mol*cm) km/mol    a.u.
----------------------------------------------------------------------------
  6:     19.87   0.000768    3.88  0.012061  ( 0.082358 -0.009532 -0.072023)
  7:     48.74   0.000823    4.16  0.005268  (-0.002337  0.024450  0.068297)
  8:     57.48   0.000799    4.04  0.004339  (-0.037493 -0.026620 -0.047165)
  9:     73.62   0.001784    9.02  0.007564  (-0.073095 -0.017571 -0.043728)
 10:     86.18   0.003523   17.80  0.012756  (-0.101200 -0.037249  0.033571)
 11:    101.28   0.002298   11.61  0.007079  ( 0.015841  0.010146  0.082007)
 12:    150.87   0.004004   20.23  0.008281  (-0.032508 -0.046259  0.071307)
 13:    178.14   0.001818    9.19  0.003185  (-0.004362  0.006198  0.055925)
 14:    213.64   0.000145    0.73  0.000212  (-0.014504 -0.001339 -0.000406)
 15:    255.56   0.000424    2.14  0.000518  ( 0.019560  0.008369  0.008057)
 16:    296.54   0.003806   19.23  0.004005  ( 0.054443 -0.022001 -0.023606)
 17:    303.26   0.000602    3.04  0.000619  ( 0.019667 -0.006657 -0.013712)
 18:    330.66   0.020613  104.17  0.019454  ( 0.125329 -0.060840  0.006694)
 19:    399.00   0.022669  114.56  0.017730  (-0.110034  0.074056  0.011746)
 20:    459.62   0.002881   14.56  0.001956  ( 0.001093 -0.036989  0.024219)
 21:    499.52   0.010859   54.88  0.006784  ( 0.002904  0.022653 -0.079136)
 22:    536.18   0.007010   35.42  0.004080  ( 0.055020  0.005391  0.031992)
 23:    561.01   0.005339   26.98  0.002970  (-0.005009 -0.004990  0.054034)
 24:    595.39   0.002577   13.02  0.001351  ( 0.013986  0.004872  0.033636)
 25:    621.67   0.000735    3.71  0.000369  (-0.017256  0.006465  0.005419)
 26:    676.54   0.003207   16.21  0.001479  ( 0.035642 -0.014423 -0.000905)
 27:    699.24   0.011620   58.72  0.005186  (-0.032311 -0.009627  0.063633)
 28:    717.39   0.023904  120.80  0.010398  ( 0.086961  0.048703  0.021545)
 29:    737.18   0.001439    7.27  0.000609  (-0.022938 -0.009099 -0.000249)
 30:    785.63   0.001004    5.07  0.000399  (-0.001861 -0.014553 -0.013547)
 31:    878.01   0.001212    6.13  0.000431  (-0.016526  0.012562 -0.000162)
 32:    918.66   0.004167   21.06  0.001416  ( 0.021096 -0.030677  0.005423)
 33:    932.30   0.002336   11.81  0.000782  ( 0.001100 -0.001354  0.027909)
 34:    976.67   0.014189   71.70  0.004534  (-0.059861  0.030507  0.004415)
 35:   1019.32   0.000398    2.01  0.000122  ( 0.005117 -0.003631  0.009081)
 36:   1027.35   0.000768    3.88  0.000233  (-0.004971  0.014358 -0.001517)
 37:   1040.35   0.001863    9.41  0.000559  (-0.021231  0.006874  0.007789)
 38:   1069.66   0.002574   13.01  0.000751  ( 0.008111 -0.026162 -0.000807)
 39:   1115.26   0.001061    5.36  0.000297  (-0.010353  0.010641  0.008743)
 40:   1115.90   0.023297  117.74  0.006515  (-0.055207  0.058862  0.001620)
 41:   1153.22   0.000483    2.44  0.000131  (-0.003067  0.010976 -0.000858)
 42:   1239.88   0.003747   18.94  0.000943  (-0.011063  0.024765 -0.014401)
 43:   1261.11   0.001458    7.37  0.000361  (-0.006135 -0.014005  0.011267)
 44:   1266.26   0.000742    3.75  0.000183  (-0.003400 -0.012946 -0.001904)
 45:   1298.77   0.016978   85.80  0.004079  ( 0.060777  0.013568 -0.014197)
 46:   1315.92   0.006777   34.25  0.001607  ( 0.038446 -0.002511 -0.011077)
 47:   1322.48   0.000667    3.37  0.000157  ( 0.000525  0.000634  0.012520)
 48:   1358.81   0.001210    6.12  0.000278  ( 0.001829  0.011971 -0.011460)
 49:   1376.26   0.007942   40.14  0.001801  (-0.004739 -0.036583  0.020978)
 50:   1411.23   0.034833  176.03  0.007703  ( 0.027560 -0.074777  0.036761)
 51:   1415.88   0.006532   33.01  0.001440  ( 0.025133  0.026737 -0.009654)
 52:   1437.78   0.096225  486.28  0.020885  (-0.143830 -0.014047  0.000917)
 53:   1484.73   0.003994   20.19  0.000840  (-0.005038  0.020983  0.019336)
 54:   1501.46   0.017079   86.31  0.003550  ( 0.050699 -0.031278 -0.000989)
 55:   1504.72   0.003984   20.14  0.000826  (-0.026110 -0.011679  0.002863)
 56:   1589.42   0.109019  550.94  0.021405  ( 0.125144 -0.074974 -0.011071)
 57:   1606.81   0.011033   55.76  0.002143  ( 0.045151 -0.005048 -0.008868)
 58:   1651.52   0.005400   27.29  0.001020  (-0.018702  0.025873 -0.001058)
 59:   1667.98   0.006084   30.75  0.001138  ( 0.001151 -0.000178 -0.033718)
 60:   1748.96   0.047014  237.59  0.008389  (-0.007396 -0.091287 -0.000776)
 61:   1791.23   0.064815  327.55  0.011292  ( 0.104807  0.017118 -0.003810)
 62:   1894.66   0.077796  393.15  0.012814  (-0.075261  0.054065  0.065010)
 63:   2878.00   0.088537  447.43  0.009600  (-0.054446  0.081417  0.002649)
 64:   3089.91   0.001955    9.88  0.000197  ( 0.012506 -0.006369 -0.000711)
 65:   3107.19   0.000589    2.97  0.000059  ( 0.007121  0.001176  0.002650)
 66:   3133.09   0.001041    5.26  0.000104  ( 0.006229 -0.008045 -0.000381)
 67:   3135.42   0.000064    0.32  0.000006  (-0.001264  0.000330  0.002160)
 68:   3194.42   0.000354    1.79  0.000035  (-0.000043 -0.000150  0.005875)
 69:   3195.04   0.000059    0.30  0.000006  ( 0.001362 -0.001948  0.000376)
 70:   3512.99   0.027580  139.38  0.002450  ( 0.044893 -0.020840 -0.000610)
 71:   3541.30   0.043865  221.68  0.003865  ( 0.057915  0.022215 -0.004210)
 72:   3573.59   0.021097  106.61  0.001842  (-0.000870 -0.000721  0.042907)
 73:   3670.15   0.012404   62.68  0.001055  (-0.005814 -0.031830  0.002776)
 74:   3686.68   0.064755  327.25  0.005481  (-0.055960  0.018937  0.044622)

--------------------------
THERMOCHEMISTRY AT 298.15K
--------------------------

Temperature         ... 298.15 K
Pressure            ... 1.00 atm
Total Mass          ... 190.18 AMU

Throughout the following assumptions are being made:
  (1) The electronic state is orbitally nondegenerate
  (2) There are no thermally accessible electronically excited states
  (3) Hindered rotations indicated by low frequency modes are not
      treated as such but are treated as vibrations and this may
      cause some error
  (4) All equations used are the standard statistical mechanics
      equations for an ideal gas
  (5) All vibrations are strictly harmonic

freq.      19.87  E(vib)   ...       0.56
freq.      48.74  E(vib)   ...       0.53
freq.      57.48  E(vib)   ...       0.51
freq.      73.62  E(vib)   ...       0.49
freq.      86.18  E(vib)   ...       0.48
freq.     101.28  E(vib)   ...       0.46
freq.     150.87  E(vib)   ...       0.40
freq.     178.14  E(vib)   ...       0.37
freq.     213.64  E(vib)   ...       0.34
freq.     255.56  E(vib)   ...       0.30
freq.     296.54  E(vib)   ...       0.27
freq.     303.26  E(vib)   ...       0.26
freq.     330.66  E(vib)   ...       0.24
freq.     399.00  E(vib)   ...       0.19
freq.     459.62  E(vib)   ...       0.16
freq.     499.52  E(vib)   ...       0.14
freq.     536.18  E(vib)   ...       0.12
freq.     561.01  E(vib)   ...       0.11
freq.     595.39  E(vib)   ...       0.10
freq.     621.67  E(vib)   ...       0.09
freq.     676.54  E(vib)   ...       0.08
freq.     699.24  E(vib)   ...       0.07
freq.     717.39  E(vib)   ...       0.07
freq.     737.18  E(vib)   ...       0.06
freq.     785.63  E(vib)   ...       0.05
freq.     878.01  E(vib)   ...       0.04
freq.     918.66  E(vib)   ...       0.03
freq.     932.30  E(vib)   ...       0.03
freq.     976.67  E(vib)   ...       0.03
freq.    1019.32  E(vib)   ...       0.02
freq.    1027.35  E(vib)   ...       0.02
freq.    1040.35  E(vib)   ...       0.02
freq.    1069.66  E(vib)   ...       0.02
freq.    1115.26  E(vib)   ...       0.01
freq.    1115.90  E(vib)   ...       0.01
freq.    1153.22  E(vib)   ...       0.01
freq.    1239.88  E(vib)   ...       0.01
freq.    1261.11  E(vib)   ...       0.01
freq.    1266.26  E(vib)   ...       0.01
freq.    1298.77  E(vib)   ...       0.01
freq.    1315.92  E(vib)   ...       0.01
freq.    1322.48  E(vib)   ...       0.01
freq.    1358.81  E(vib)   ...       0.01
freq.    1376.26  E(vib)   ...       0.01
freq.    1411.23  E(vib)   ...       0.00
freq.    1415.88  E(vib)   ...       0.00
freq.    1437.78  E(vib)   ...       0.00
freq.    1484.73  E(vib)   ...       0.00
freq.    1501.46  E(vib)   ...       0.00
freq.    1504.72  E(vib)   ...       0.00
freq.    1589.42  E(vib)   ...       0.00
freq.    1606.81  E(vib)   ...       0.00
freq.    1651.52  E(vib)   ...       0.00
freq.    1667.98  E(vib)   ...       0.00
freq.    1748.96  E(vib)   ...       0.00
freq.    1791.23  E(vib)   ...       0.00
freq.    1894.66  E(vib)   ...       0.00
freq.    2878.00  E(vib)   ...       0.00
freq.    3089.91  E(vib)   ...       0.00
freq.    3107.19  E(vib)   ...       0.00
freq.    3133.09  E(vib)   ...       0.00
freq.    3135.42  E(vib)   ...       0.00
freq.    3194.42  E(vib)   ...       0.00
freq.    3195.04  E(vib)   ...       0.00
freq.    3512.99  E(vib)   ...       0.00
freq.    3541.30  E(vib)   ...       0.00
freq.    3573.59  E(vib)   ...       0.00
freq.    3670.15  E(vib)   ...       0.00
freq.    3686.68  E(vib)   ...       0.00

------------
INNER ENERGY
------------

The inner energy is: U= E(el) + E(ZPE) + E(vib) + E(rot) + E(trans)
    E(el)   - is the total energy from the electronic structure calculation
              = E(kin-el) + E(nuc-el) + E(el-el) + E(nuc-nuc)
    E(ZPE)  - the the zero temperature vibrational energy from the frequency calculation
    E(vib)  - the the finite temperature correction to E(ZPE) due to population
              of excited vibrational states
    E(rot)  - is the rotational thermal energy
    E(trans)- is the translational thermal energy

Summary of contributions to the inner energy U:
Electronic energy                ...   -701.33537006 Eh
Zero point energy                ...      0.20848539 Eh     130.83 kcal/mol
Thermal vibrational correction   ...      0.01085335 Eh       6.81 kcal/mol
Thermal rotational correction    ...      0.00141627 Eh       0.89 kcal/mol
Thermal translational correction ...      0.00141627 Eh       0.89 kcal/mol
-----------------------------------------------------------------------
Total thermal energy                   -701.11319878 Eh

Summary of corrections to the electronic energy:
(perhaps to be used in another calculation)
Total thermal correction                  0.01368590 Eh       8.59 kcal/mol
Non-thermal (ZPE) correction              0.20848539 Eh     130.83 kcal/mol
-----------------------------------------------------------------------
Total correction                          0.22217128 Eh     139.41 kcal/mol

--------
ENTHALPY
--------

The enthalpy is H = U + kB*T
                kB is Boltzmann's constant
Total free energy                 ...   -701.11319878 Eh
Thermal Enthalpy correction       ...      0.00094421 Eh       0.59 kcal/mol
-----------------------------------------------------------------------
Total Enthalpy                    ...   -701.11225457 Eh

Note: Only C1 symmetry has been detected, increase convergence thresholds
      if your molecule has a higher symmetry. Symmetry factor of 1.0 is
      used for the rotational entropy correction.

Note: Rotational entropy computed according to Herzberg
Infrared and Raman Spectra, Chapter V,1, Van Nostrand Reinhold, 1945
Point Group:  C1, Symmetry Number:   1
Rotational constants in cm-1:     0.080547     0.008737     0.008383

Vibrational entropy computed according to the QRRHO of S. Grimme
Chem.Eur.J. 2012 18 9955

-------
ENTROPY
-------

The entropy contributions are T*S = T*(S(el)+S(vib)+S(rot)+S(trans))
     S(el)   - electronic entropy
     S(vib)  - vibrational entropy
     S(rot)  - rotational entropy
     S(trans)- translational entropy
The entropies will be listed as multiplied by the temperature to get
units of energy

Electronic entropy                ...      0.00000000 Eh      0.00 kcal/mol
Vibrational entropy               ...      0.01962062 Eh     12.31 kcal/mol
Rotational entropy                ...      0.01519509 Eh      9.54 kcal/mol
Translational entropy             ...      0.01978162 Eh     12.41 kcal/mol
-----------------------------------------------------------------------

                             ****ORCA TERMINATED NORMALLY****
TOTAL RUN TIME: 0 days 1 hours 32 minutes 20 seconds 753 msec
