                         Program Version 5.0.2 -  RELEASE  -
|  1> # GGG-H_tt_005 (old 025)
|  2> ! wB97X-D3BJ Opt Freq def2-TZVPP def2/J RIJCOSX VeryTightSCF
|  3> ! PAL8 defgrid3 VeryTightOpt
|  4>
|  5> %maxcore 4096
|  6>
|  7> %geom
|  8>   MaxIter 300
|  9>   # MaxStep 0.1
| 10>   Calc_Hess true
| 11>   Recalc_Hess 10
| 12> end
| 13>
| 14> %chelpg
| 15>   grid 0.1
| 16>   rmax 3.0
| 17> end
| 18>
| 19> * xyz 1 1
| 20>  N   -3.281867   +1.525661   -0.016339
| 21>  H   -3.093818   +2.529245   -0.016921
| 22>  C   -4.682910   +1.114909   -0.025004
| 23>  C   -5.644980   +2.293413   -0.033029
| 24>  H   -4.900813   +0.490390   -0.910056
| 25>  H   -4.912841   +0.492732   +0.858583
| 26>  O   -6.845259   +2.176396   -0.037027
| 27>  C   -2.282872   +0.624955   -0.010449
| 28>  C   -0.843092   +1.185856   -0.000893
| 29>  O   -2.453931   -0.600025   -0.011574
| 30>  N   +0.000000   +0.000000   +0.000000
| 31>  H   -0.659060   +1.804277   +0.896078
| 32>  H   -0.648098   +1.810931   -0.890814
| 33>  H   -0.593208   -0.855901   -0.002521
| 34>  C   +1.322175   +0.000000   +0.000000
| 35>  C   +2.055975   -1.370672   +0.000394
| 36>  O   +2.058221   +1.010656   +0.000000
| 37>  H   +1.822096   -1.965892   -0.895070
| 38>  H   +1.823894   -1.963059   +0.898219
| 39>  O   -4.990872   +3.487786   -0.035461
| 40>  H   -5.673182   +4.193461   -0.040713
| 41>  N   +3.496163   -0.959971   -0.001359
| 42>  H   +4.017235   -1.256583   -0.837714
| 43>  H   +3.326865   +0.146862   -0.000634
| 44>  H   +4.018535   -1.255968   +0.834425
| 45> *
| 46>
| 47>                          ****END OF INPUT****
 Total Charge           Charge          ....    1
 Multiplicity           Mult            ....    1
 Number of Electrons    NEL             ....  100
Dispersion correction           -0.039519304
FINAL SINGLE POINT ENERGY      -701.337862575523
Dispersion correction            ... done
Dispersion correction in the Hessian             ... done   (      0.6 sec)
Dispersion correction           -0.039805132
FINAL SINGLE POINT ENERGY      -701.341443962693
Dispersion correction            ... done
Dispersion correction           -0.039941013
FINAL SINGLE POINT ENERGY      -701.341282514008
FINAL SINGLE POINT ENERGY      -701.341965504067
FINAL SINGLE POINT ENERGY      -701.342018244970
FINAL SINGLE POINT ENERGY      -701.342029965658
Dispersion correction           -0.039821729
FINAL SINGLE POINT ENERGY      -701.342030389478
Dispersion correction            ... done
Dispersion correction           -0.039821336
FINAL SINGLE POINT ENERGY      -701.342030566508
Dispersion correction            ... done
                    ***********************HURRAY********************

CARTESIAN COORDINATES (ANGSTROEM)
---------------------------------
  N     -3.272628    1.520660   -0.017174
  H     -3.053925    2.503134   -0.016788
  C     -4.671969    1.130506   -0.023673
  C     -5.617918    2.312305   -0.031186
  H     -4.899104    0.520488   -0.900077
  H     -4.908517    0.524160    0.852795
  O     -6.807138    2.196645   -0.036818
  C     -2.304259    0.597673   -0.012683
  C     -0.867754    1.130204   -0.006242
  O     -2.507166   -0.607607   -0.013408
  N     -0.015648   -0.042988   -0.003558
  H     -0.686757    1.742768    0.879416
  H     -0.679108    1.744151   -0.889326
  H     -0.544220   -0.913249   -0.005136
  C      1.299959    0.009092   -0.001026
  C      2.057079   -1.334861    0.000930
  O      1.986983    1.031339   -0.000007
  H      1.834481   -1.923284   -0.886877
  H      1.832378   -1.921624    0.889310
  O     -4.978072    3.502510   -0.030813
  H     -5.652546    4.195091   -0.035754
  N      3.493736   -0.926847    0.002366
  H      4.001923   -1.233057   -0.824018
  H      3.394022    0.135793    0.002446
  H      4.000522   -1.233543    0.829423

 Multiplicity           Mult            ....    1
 Number of Electrons    NEL             ....  100
 Basis Dimension        Dim             ....  571

ORBITAL ENERGIES
----------------

  NO   OCC          E(Eh)            E(eV)
   0   2.0000     -19.368326      -527.0389
   1   2.0000     -19.363603      -526.9104
   2   2.0000     -19.311574      -525.4946
   3   2.0000     -19.300822      -525.2021
   4   2.0000     -14.706150      -400.1747
   5   2.0000     -14.601275      -397.3209
   6   2.0000     -14.563246      -396.2861
   7   2.0000     -10.555582      -287.2320
   8   2.0000     -10.522221      -286.3242
   9   2.0000     -10.511257      -286.0258
  10   2.0000     -10.508088      -285.9396
  11   2.0000     -10.459338      -284.6131
  12   2.0000     -10.430352      -283.8243
  13   2.0000      -1.366928       -37.1960
  14   2.0000      -1.349282       -36.7158
  15   2.0000      -1.311915       -35.6990
  16   2.0000      -1.303580       -35.4722
  17   2.0000      -1.255465       -34.1629
  18   2.0000      -1.229418       -33.4542
  19   2.0000      -1.189402       -32.3653
  20   2.0000      -1.068891       -29.0860
  21   2.0000      -1.020653       -27.7734
  22   2.0000      -0.976642       -26.5758
  23   2.0000      -0.893959       -24.3259
  24   2.0000      -0.888727       -24.1835
  25   2.0000      -0.875786       -23.8314
  26   2.0000      -0.857541       -23.3349
  27   2.0000      -0.838027       -22.8039
  28   2.0000      -0.807909       -21.9843
  29   2.0000      -0.778004       -21.1706
  30   2.0000      -0.761159       -20.7122
  31   2.0000      -0.757994       -20.6261
  32   2.0000      -0.730448       -19.8765
  33   2.0000      -0.730357       -19.8740
  34   2.0000      -0.709879       -19.3168
  35   2.0000      -0.709223       -19.2989
  36   2.0000      -0.697907       -18.9910
  37   2.0000      -0.680731       -18.5236
  38   2.0000      -0.665921       -18.1206
  39   2.0000      -0.662706       -18.0332
  40   2.0000      -0.640659       -17.4332
  41   2.0000      -0.634083       -17.2543
  42   2.0000      -0.613498       -16.6941
  43   2.0000      -0.600609       -16.3434
  44   2.0000      -0.563708       -15.3393
  45   2.0000      -0.537702       -14.6316
  46   2.0000      -0.533372       -14.5138
  47   2.0000      -0.506649       -13.7866
  48   2.0000      -0.489770       -13.3273
  49   2.0000      -0.486781       -13.2460
  50   0.0000      -0.086876        -2.3640
  51   0.0000      -0.067813        -1.8453
  52   0.0000      -0.029963        -0.8153
  53   0.0000      -0.027255        -0.7416
  54   0.0000      -0.016389        -0.4460

MULLIKEN ATOMIC CHARGES
-----------------------
   0 N :   -0.195014
   1 H :    0.181573
   2 C :   -0.060240
   3 C :    0.293793
   4 H :    0.137394
   5 H :    0.137421
   6 O :   -0.272739
   7 C :    0.287438
   8 C :   -0.107612
   9 O :   -0.391190
  10 N :   -0.170596
  11 H :    0.143360
  12 H :    0.143318
  13 H :    0.193241
  14 C :    0.266678
  15 C :   -0.158637
  16 O :   -0.365525
  17 H :    0.170772
  18 H :    0.170799
  19 O :   -0.295659
  20 H :    0.239665
  21 N :   -0.055079
  22 H :    0.236811
  23 H :    0.233210
  24 H :    0.236818
Sum of atomic charges:    1.0000000

LOEWDIN ATOMIC CHARGES
----------------------
   0 N :    0.332767
   1 H :   -0.023866
   2 C :   -0.022384
   3 C :   -0.429786
   4 H :    0.043321
   5 H :    0.043302
   6 O :    0.145920
   7 C :   -0.383803
   8 C :   -0.011669
   9 O :    0.085437
  10 N :    0.356899
  11 H :    0.034670
  12 H :    0.034663
  13 H :   -0.018504
  14 C :   -0.381786
  15 C :    0.045121
  16 O :    0.121556
  17 H :    0.037677
  18 H :    0.037701
  19 O :    0.345021
  20 H :   -0.079776
  21 N :    0.599836
  22 H :    0.046672
  23 H :   -0.005644
  24 H :    0.046653

  Mayer bond orders larger than 0.100000
B(  0-N ,  1-H ) :   0.9507 B(  0-N ,  2-C ) :   0.8727 B(  0-N ,  7-C ) :   1.3318
B(  2-C ,  3-C ) :   0.9473 B(  2-C ,  4-H ) :   0.9783 B(  2-C ,  5-H ) :   0.9783
B(  3-C ,  6-O ) :   2.1532 B(  3-C , 19-O ) :   1.1572 B(  7-C ,  8-C ) :   0.9234
B(  7-C ,  9-O ) :   1.9190 B(  8-C , 10-N ) :   0.8955 B(  8-C , 11-H ) :   0.9847
B(  8-C , 12-H ) :   0.9851 B(  9-O , 13-H ) :   0.1039 B( 10-N , 13-H ) :   0.9058
B( 10-N , 14-C ) :   1.4120 B( 14-C , 15-C ) :   0.9100 B( 14-C , 16-O ) :   1.8442
B( 15-C , 17-H ) :   0.9859 B( 15-C , 18-H ) :   0.9859 B( 15-C , 21-N ) :   0.8984
B( 16-O , 23-H ) :   0.2043 B( 19-O , 20-H ) :   0.9491 B( 21-N , 22-H ) :   0.9405
B( 21-N , 23-H ) :   0.8133 B( 21-N , 24-H ) :   0.9405

Dispersion correction           -0.039821354
FINAL SINGLE POINT ENERGY      -701.342030626538

DIPOLE MOMENT
-------------
                                X             Y             Z
Electronic contribution:     -7.12102       3.34934      -0.02984
Nuclear contribution   :     13.90610      -5.32030       0.05235
                        -----------------------------------------
Total Dipole Moment    :      6.78508      -1.97097       0.02251
                        -----------------------------------------
Magnitude (a.u.)       :      7.06559
Magnitude (Debye)      :     17.95929

Dispersion correction in the Hessian             ... done   (      0.6 sec)

VIBRATIONAL FREQUENCIES
-----------------------

Scaling factor for frequencies =  1.000000000  (already applied!)

   0:         0.00 cm**-1
   1:         0.00 cm**-1
   2:         0.00 cm**-1
   3:         0.00 cm**-1
   4:         0.00 cm**-1
   5:         0.00 cm**-1
   6:        13.87 cm**-1
   7:        31.95 cm**-1
   8:        39.77 cm**-1
   9:        58.15 cm**-1
  10:        73.10 cm**-1
  11:        91.50 cm**-1
  12:       137.75 cm**-1
  13:       153.92 cm**-1
  14:       186.85 cm**-1
  15:       215.13 cm**-1
  16:       294.12 cm**-1
  17:       314.52 cm**-1
  18:       314.62 cm**-1
  19:       398.69 cm**-1
  20:       470.77 cm**-1
  21:       482.97 cm**-1
  22:       530.14 cm**-1
  23:       565.64 cm**-1
  24:       576.27 cm**-1
  25:       598.61 cm**-1
  26:       617.26 cm**-1
  27:       671.96 cm**-1
  28:       691.73 cm**-1
  29:       738.95 cm**-1
  30:       749.39 cm**-1
  31:       869.99 cm**-1
  32:       931.69 cm**-1
  33:       960.10 cm**-1
  34:      1001.09 cm**-1
  35:      1011.97 cm**-1
  36:      1023.23 cm**-1
  37:      1028.92 cm**-1
  38:      1111.11 cm**-1
  39:      1114.25 cm**-1
  40:      1120.54 cm**-1
  41:      1164.38 cm**-1
  42:      1199.93 cm**-1
  43:      1253.80 cm**-1
  44:      1255.51 cm**-1
  45:      1269.78 cm**-1
  46:      1274.56 cm**-1
  47:      1321.85 cm**-1
  48:      1345.25 cm**-1
  49:      1367.45 cm**-1
  50:      1393.85 cm**-1
  51:      1418.87 cm**-1
  52:      1427.45 cm**-1
  53:      1496.91 cm**-1
  54:      1500.95 cm**-1
  55:      1506.56 cm**-1
  56:      1582.56 cm**-1
  57:      1597.53 cm**-1
  58:      1650.61 cm**-1
  59:      1666.66 cm**-1
  60:      1777.59 cm**-1
  61:      1793.88 cm**-1
  62:      1888.31 cm**-1
  63:      2822.01 cm**-1
  64:      3091.65 cm**-1
  65:      3100.30 cm**-1
  66:      3134.17 cm**-1
  67:      3136.78 cm**-1
  68:      3138.68 cm**-1
  69:      3195.63 cm**-1
  70:      3496.44 cm**-1
  71:      3516.79 cm**-1
  72:      3578.41 cm**-1
  73:      3666.94 cm**-1
  74:      3803.24 cm**-1

IR SPECTRUM
-----------

 Mode   freq       eps      Int      T**2         TX        TY        TZ
       cm**-1   L/(mol*cm) km/mol    a.u.
----------------------------------------------------------------------------
  6:     13.87   0.000164    0.83  0.003697  (-0.000043  0.000263 -0.060799)
  7:     31.95   0.000012    0.06  0.000117  (-0.000295 -0.000068 -0.010797)
  8:     39.77   0.001710    8.64  0.013418  ( 0.000564  0.000049 -0.115834)
  9:     58.15   0.001099    5.55  0.005898  ( 0.068126  0.035451  0.000654)
 10:     73.10   0.000704    3.56  0.003004  (-0.000276 -0.000100  0.054809)
 11:     91.50   0.003533   17.85  0.012049  (-0.000499  0.000003  0.109765)
 12:    137.75   0.003291   16.63  0.007455  (-0.084073 -0.019649 -0.000757)
 13:    153.92   0.000302    1.53  0.000612  (-0.000652  0.000014  0.024737)
 14:    186.85   0.002947   14.90  0.004923  (-0.000116 -0.000205  0.070161)
 15:    215.13   0.001736    8.77  0.002518  (-0.044587  0.023019  0.000096)
 16:    294.12   0.002503   12.65  0.002656  (-0.044260  0.026399 -0.000064)
 17:    314.52   0.000030    0.15  0.000029  (-0.001641  0.000630 -0.005125)
 18:    314.62   0.016756   84.68  0.016620  ( 0.120452 -0.045948  0.000223)
 19:    398.69   0.030315  153.20  0.023728  (-0.120990  0.095340 -0.000216)
 20:    470.77   0.015099   76.31  0.010009  (-0.000278  0.000084  0.100045)
 21:    482.97   0.001097    5.54  0.000709  ( 0.024062 -0.011390 -0.000434)
 22:    530.14   0.001006    5.08  0.000592  ( 0.000177 -0.000035 -0.024332)
 23:    565.64   0.004127   20.86  0.002277  (-0.000290 -0.000171  0.047714)
 24:    576.27   0.002085   10.54  0.001129  (-0.028592 -0.017650 -0.000403)
 25:    598.61   0.012789   64.63  0.006667  (-0.038107  0.072215 -0.000330)
 26:    617.26   0.000889    4.49  0.000449  ( 0.000030 -0.000000 -0.021200)
 27:    671.96   0.019944  100.79  0.009262  ( 0.000525 -0.000207 -0.096239)
 28:    691.73   0.002202   11.13  0.000993  ( 0.030898  0.006215  0.000111)
 29:    738.95   0.010735   54.25  0.004533  (-0.000158 -0.000250  0.067330)
 30:    749.39   0.000824    4.16  0.000343  ( 0.012584  0.013578  0.000528)
 31:    869.99   0.001411    7.13  0.000506  ( 0.022304 -0.002965  0.000071)
 32:    931.69   0.002195   11.09  0.000735  ( 0.000095 -0.000036 -0.027115)
 33:    960.10   0.008214   41.51  0.002670  (-0.030176  0.041943 -0.000031)
 34:   1001.09   0.018191   91.93  0.005670  (-0.074819  0.008518 -0.000326)
 35:   1011.97   0.000677    3.42  0.000209  ( 0.000854 -0.000142 -0.014419)
 36:   1023.23   0.000016    0.08  0.000005  ( 0.000108 -0.000053 -0.002220)
 37:   1028.92   0.001223    6.18  0.000371  (-0.013338  0.013896 -0.000044)
 38:   1111.11   0.016666   84.23  0.004681  ( 0.031965 -0.060491  0.000023)
 39:   1114.25   0.000224    1.13  0.000063  ( 0.000206 -0.000339  0.007915)
 40:   1120.54   0.013856   70.02  0.003859  (-0.053189  0.032088 -0.000127)
 41:   1164.38   0.003484   17.61  0.000934  ( 0.017139  0.025300  0.000007)
 42:   1199.93   0.045643  230.66  0.011870  ( 0.009878  0.108502 -0.000150)
 43:   1253.80   0.001842    9.31  0.000459  (-0.013832 -0.016345 -0.000322)
 44:   1255.51   0.000225    1.14  0.000056  (-0.000395 -0.000638  0.007438)
 45:   1269.78   0.000355    1.79  0.000087  (-0.000160 -0.000043  0.009338)
 46:   1274.56   0.015211   76.87  0.003724  (-0.060887  0.004102 -0.000301)
 47:   1321.85   0.000728    3.68  0.000172  (-0.000029  0.000039  0.013113)
 48:   1345.25   0.003482   17.60  0.000808  ( 0.025010  0.013504 -0.000001)
 49:   1367.45   0.003137   15.85  0.000716  (-0.000741  0.026745 -0.000024)
 50:   1393.85   0.013421   67.82  0.003005  (-0.008112  0.054211 -0.000151)
 51:   1418.87   0.006028   30.46  0.001326  ( 0.034124 -0.012696  0.000114)
 52:   1427.45   0.101861  514.76  0.022268  (-0.148211 -0.017373 -0.000277)
 53:   1496.91   0.001635    8.26  0.000341  (-0.002548  0.018286 -0.000026)
 54:   1500.95   0.017896   90.44  0.003721  (-0.052818  0.030514 -0.000146)
 55:   1506.56   0.003087   15.60  0.000639  (-0.022270 -0.011979 -0.000100)
 56:   1582.56   0.144830  731.91  0.028559  ( 0.150627 -0.076616  0.000560)
 57:   1597.53   0.006789   34.31  0.001326  ( 0.034801  0.010722  0.000264)
 58:   1650.61   0.004769   24.10  0.000902  (-0.018770  0.023436  0.000147)
 59:   1666.66   0.006007   30.36  0.001125  (-0.000057  0.000143 -0.033537)
 60:   1777.59   0.055013  278.01  0.009658  (-0.011761 -0.097567  0.000062)
 61:   1793.88   0.069194  349.68  0.012037  ( 0.109663 -0.003318  0.000271)
 62:   1888.31   0.068771  347.54  0.011365  ( 0.104882  0.019098  0.000469)
 63:   2822.01   0.095886  484.57  0.010603  (-0.057981  0.085097 -0.000100)
 64:   3091.65   0.002103   10.63  0.000212  ( 0.012067 -0.008162  0.000028)
 65:   3100.30   0.001626    8.22  0.000164  ( 0.012348 -0.003348  0.000053)
 66:   3134.17   0.000891    4.50  0.000089  ( 0.005981 -0.007278  0.000022)
 67:   3136.78   0.000157    0.79  0.000016  (-0.000004  0.000007 -0.003950)
 68:   3138.68   0.000037    0.19  0.000004  (-0.000004 -0.000022  0.001929)
 69:   3195.63   0.000297    1.50  0.000029  ( 0.000012 -0.000001 -0.005387)
 70:   3496.44   0.056985  287.98  0.005086  ( 0.068827  0.018674  0.000206)
 71:   3516.79   0.020617  104.19  0.001829  (-0.036241  0.022717 -0.000014)
 72:   3578.41   0.020501  103.60  0.001788  (-0.000011 -0.000025  0.042283)
 73:   3666.94   0.020367  102.93  0.001733  ( 0.011867 -0.039905  0.000080)
 74:   3803.24   0.025936  131.07  0.002128  ( 0.021604 -0.040760  0.000197)

--------------------------
THERMOCHEMISTRY AT 298.15K
--------------------------

Temperature         ... 298.15 K
Pressure            ... 1.00 atm
Total Mass          ... 190.18 AMU

Throughout the following assumptions are being made:
  (1) The electronic state is orbitally nondegenerate
  (2) There are no thermally accessible electronically excited states
  (3) Hindered rotations indicated by low frequency modes are not
      treated as such but are treated as vibrations and this may
      cause some error
  (4) All equations used are the standard statistical mechanics
      equations for an ideal gas
  (5) All vibrations are strictly harmonic

freq.      13.87  E(vib)   ...       0.57
freq.      31.95  E(vib)   ...       0.55
freq.      39.77  E(vib)   ...       0.54
freq.      58.15  E(vib)   ...       0.51
freq.      73.10  E(vib)   ...       0.49
freq.      91.50  E(vib)   ...       0.47
freq.     137.75  E(vib)   ...       0.42
freq.     153.92  E(vib)   ...       0.40
freq.     186.85  E(vib)   ...       0.36
freq.     215.13  E(vib)   ...       0.34
freq.     294.12  E(vib)   ...       0.27
freq.     314.52  E(vib)   ...       0.25
freq.     314.62  E(vib)   ...       0.25
freq.     398.69  E(vib)   ...       0.19
freq.     470.77  E(vib)   ...       0.15
freq.     482.97  E(vib)   ...       0.15
freq.     530.14  E(vib)   ...       0.13
freq.     565.64  E(vib)   ...       0.11
freq.     576.27  E(vib)   ...       0.11
freq.     598.61  E(vib)   ...       0.10
freq.     617.26  E(vib)   ...       0.09
freq.     671.96  E(vib)   ...       0.08
freq.     691.73  E(vib)   ...       0.07
freq.     738.95  E(vib)   ...       0.06
freq.     749.39  E(vib)   ...       0.06
freq.     869.99  E(vib)   ...       0.04
freq.     931.69  E(vib)   ...       0.03
freq.     960.10  E(vib)   ...       0.03
freq.    1001.09  E(vib)   ...       0.02
freq.    1011.97  E(vib)   ...       0.02
freq.    1023.23  E(vib)   ...       0.02
freq.    1028.92  E(vib)   ...       0.02
freq.    1111.11  E(vib)   ...       0.01
freq.    1114.25  E(vib)   ...       0.01
freq.    1120.54  E(vib)   ...       0.01
freq.    1164.38  E(vib)   ...       0.01
freq.    1199.93  E(vib)   ...       0.01
freq.    1253.80  E(vib)   ...       0.01
freq.    1255.51  E(vib)   ...       0.01
freq.    1269.78  E(vib)   ...       0.01
freq.    1274.56  E(vib)   ...       0.01
freq.    1321.85  E(vib)   ...       0.01
freq.    1345.25  E(vib)   ...       0.01
freq.    1367.45  E(vib)   ...       0.01
freq.    1393.85  E(vib)   ...       0.00
freq.    1418.87  E(vib)   ...       0.00
freq.    1427.45  E(vib)   ...       0.00
freq.    1496.91  E(vib)   ...       0.00
freq.    1500.95  E(vib)   ...       0.00
freq.    1506.56  E(vib)   ...       0.00
freq.    1582.56  E(vib)   ...       0.00
freq.    1597.53  E(vib)   ...       0.00
freq.    1650.61  E(vib)   ...       0.00
freq.    1666.66  E(vib)   ...       0.00
freq.    1777.59  E(vib)   ...       0.00
freq.    1793.88  E(vib)   ...       0.00
freq.    1888.31  E(vib)   ...       0.00
freq.    2822.01  E(vib)   ...       0.00
freq.    3091.65  E(vib)   ...       0.00
freq.    3100.30  E(vib)   ...       0.00
freq.    3134.17  E(vib)   ...       0.00
freq.    3136.78  E(vib)   ...       0.00
freq.    3138.68  E(vib)   ...       0.00
freq.    3195.63  E(vib)   ...       0.00
freq.    3496.44  E(vib)   ...       0.00
freq.    3516.79  E(vib)   ...       0.00
freq.    3578.41  E(vib)   ...       0.00
freq.    3666.94  E(vib)   ...       0.00
freq.    3803.24  E(vib)   ...       0.00

------------
INNER ENERGY
------------

The inner energy is: U= E(el) + E(ZPE) + E(vib) + E(rot) + E(trans)
    E(el)   - is the total energy from the electronic structure calculation
              = E(kin-el) + E(nuc-el) + E(el-el) + E(nuc-nuc)
    E(ZPE)  - the the zero temperature vibrational energy from the frequency calculation
    E(vib)  - the the finite temperature correction to E(ZPE) due to population
              of excited vibrational states
    E(rot)  - is the rotational thermal energy
    E(trans)- is the translational thermal energy

Summary of contributions to the inner energy U:
Electronic energy                ...   -701.34203063 Eh
Zero point energy                ...      0.20737209 Eh     130.13 kcal/mol
Thermal vibrational correction   ...      0.01127447 Eh       7.07 kcal/mol
Thermal rotational correction    ...      0.00141627 Eh       0.89 kcal/mol
Thermal translational correction ...      0.00141627 Eh       0.89 kcal/mol
-----------------------------------------------------------------------
Total thermal energy                   -701.12055153 Eh

Summary of corrections to the electronic energy:
(perhaps to be used in another calculation)
Total thermal correction                  0.01410701 Eh       8.85 kcal/mol
Non-thermal (ZPE) correction              0.20737209 Eh     130.13 kcal/mol
-----------------------------------------------------------------------
Total correction                          0.22147910 Eh     138.98 kcal/mol

--------
ENTHALPY
--------

The enthalpy is H = U + kB*T
                kB is Boltzmann's constant
Total free energy                 ...   -701.12055153 Eh
Thermal Enthalpy correction       ...      0.00094421 Eh       0.59 kcal/mol
-----------------------------------------------------------------------
Total Enthalpy                    ...   -701.11960732 Eh

Note: Only C1 symmetry has been detected, increase convergence thresholds
      if your molecule has a higher symmetry. Symmetry factor of 1.0 is
      used for the rotational entropy correction.

Note: Rotational entropy computed according to Herzberg
Infrared and Raman Spectra, Chapter V,1, Van Nostrand Reinhold, 1945
Point Group:  C1, Symmetry Number:   1
Rotational constants in cm-1:     0.108570     0.007522     0.007070

Vibrational entropy computed according to the QRRHO of S. Grimme
Chem.Eur.J. 2012 18 9955

-------
ENTROPY
-------

The entropy contributions are T*S = T*(S(el)+S(vib)+S(rot)+S(trans))
     S(el)   - electronic entropy
     S(vib)  - vibrational entropy
     S(rot)  - rotational entropy
     S(trans)- translational entropy
The entropies will be listed as multiplied by the temperature to get
units of energy

Electronic entropy                ...      0.00000000 Eh      0.00 kcal/mol
Vibrational entropy               ...      0.02084638 Eh     13.08 kcal/mol
Rotational entropy                ...      0.01520524 Eh      9.54 kcal/mol
Translational entropy             ...      0.01978162 Eh     12.41 kcal/mol
-----------------------------------------------------------------------

                             ****ORCA TERMINATED NORMALLY****
TOTAL RUN TIME: 0 days 1 hours 24 minutes 29 seconds 828 msec
