                         Program Version 5.0.2 -  RELEASE  -
|  1> # GGG-H_tt_002 (old 011)
|  2> ! wB97X-D3BJ Opt Freq def2-TZVPP def2/J RIJCOSX VeryTightSCF
|  3> ! PAL8 defgrid3 VeryTightOpt
|  4>
|  5> %maxcore 4096
|  6>
|  7> %geom
|  8>   MaxIter 300
|  9>   # MaxStep 0.1
| 10>   Calc_Hess true
| 11>   Recalc_Hess 10
| 12> end
| 13>
| 14> %chelpg
| 15>   grid 0.1
| 16>   rmax 3.0
| 17> end
| 18>
| 19> * xyz 1 1
| 20>  N   -1.087172   +1.890345   -2.937427
| 21>  H   -1.759568   +2.539902   -2.523224
| 22>  C   -0.924551   +1.957330   -4.388426
| 23>  C   -1.778729   +3.043791   -5.029744
| 24>  H   +0.130271   +2.152534   -4.650014
| 25>  H   -1.194009   +0.992680   -4.854474
| 26>  O   -1.775227   +3.278376   -6.211781
| 27>  C   -0.392195   +1.041708   -2.170878
| 28>  C   -0.641702   +1.131586   -0.641905
| 29>  O   +0.423815   +0.229566   -2.660413
| 30>  N   +0.000000   +0.000000   +0.000000
| 31>  H   -1.718802   +1.147945   -0.411893
| 32>  H   -0.186742   +2.060186   -0.259369
| 33>  H   -0.467849   -0.899788   -0.106442
| 34>  C   +1.368839   +0.000000   +0.000000
| 35>  C   +2.046966   -1.348318   -0.291044
| 36>  O   +2.061309   +1.009887   +0.000000
| 37>  H   +1.375389   -2.219556   -0.301060
| 38>  H   +2.909378   -1.531678   +0.365797
| 39>  O   -2.536091   +3.700371   -4.111161
| 40>  H   -3.059558   +4.381345   -4.587025
| 41>  N   +2.532918   -1.109428   -1.704332
| 42>  H   +3.265558   -0.379475   -1.678933
| 43>  H   +2.903695   -1.950051   -2.170523
| 44>  H   +1.702565   -0.671831   -2.241647
| 45> *
| 46>
| 47>                          ****END OF INPUT****
 Total Charge           Charge          ....    1
 Multiplicity           Mult            ....    1
 Number of Electrons    NEL             ....  100
Dispersion correction           -0.042493946
FINAL SINGLE POINT ENERGY      -701.339951692964
Dispersion correction            ... done
Dispersion correction in the Hessian             ... done   (      0.5 sec)
Dispersion correction           -0.042728403
FINAL SINGLE POINT ENERGY      -701.343395657544
Dispersion correction            ... done
Dispersion correction           -0.042729880
FINAL SINGLE POINT ENERGY      -701.343478979849
FINAL SINGLE POINT ENERGY      -701.343528576585
FINAL SINGLE POINT ENERGY      -701.343551974062
FINAL SINGLE POINT ENERGY      -701.343567646329
FINAL SINGLE POINT ENERGY      -701.343572336575
FINAL SINGLE POINT ENERGY      -701.343574515912
FINAL SINGLE POINT ENERGY      -701.343575575821
FINAL SINGLE POINT ENERGY      -701.343575833188
FINAL SINGLE POINT ENERGY      -701.343575799026
FINAL SINGLE POINT ENERGY      -701.343575455921
Dispersion correction           -0.042787048
FINAL SINGLE POINT ENERGY      -701.343575716450
Dispersion correction            ... done
Dispersion correction           -0.042787175
FINAL SINGLE POINT ENERGY      -701.343575770558
Dispersion correction            ... done
                    ***********************HURRAY********************

CARTESIAN COORDINATES (ANGSTROEM)
---------------------------------
  N     -1.075413    1.907641   -2.907433
  H     -1.685242    2.585362   -2.477572
  C     -0.911699    1.966651   -4.350983
  C     -1.745835    3.053162   -5.000058
  H      0.131251    2.153617   -4.612839
  H     -1.193493    1.016703   -4.808075
  O     -1.744928    3.252581   -6.177350
  C     -0.438293    1.008111   -2.165261
  C     -0.701982    1.080412   -0.649165
  O      0.316561    0.160373   -2.655860
  N      0.005297    0.006067    0.011452
  H     -1.769692    0.997780   -0.447253
  H     -0.353392    2.040237   -0.268917
  H     -0.426848   -0.901210   -0.046829
  C      1.359969    0.044597   -0.074171
  C      2.072554   -1.290056   -0.300100
  O      2.014869    1.059790   -0.161001
  H      1.431504   -2.167315   -0.241882
  H      2.936998   -1.399500    0.350620
  O     -2.475100    3.757428   -4.110137
  H     -2.972853    4.427732   -4.598222
  N      2.537845   -1.135772   -1.722512
  H      3.242201   -0.395900   -1.755957
  H      2.924377   -1.991878   -2.114917
  H      1.719854   -0.789186   -2.281499

 Multiplicity           Mult            ....    1
 Number of Electrons    NEL             ....  100
 Basis Dimension        Dim             ....  571

ORBITAL ENERGIES
----------------

  NO   OCC          E(Eh)            E(eV)
   0   2.0000     -19.384473      -527.4783
   1   2.0000     -19.346941      -526.4570
   2   2.0000     -19.345748      -526.4246
   3   2.0000     -19.317301      -525.6505
   4   2.0000     -14.698562      -399.9682
   5   2.0000     -14.596888      -397.2015
   6   2.0000     -14.589775      -397.0080
   7   2.0000     -10.544385      -286.9273
   8   2.0000     -10.535703      -286.6911
   9   2.0000     -10.528391      -286.4921
  10   2.0000     -10.510974      -286.0181
  11   2.0000     -10.469788      -284.8974
  12   2.0000     -10.452256      -284.4204
  13   2.0000      -1.365903       -37.1681
  14   2.0000      -1.355548       -36.8863
  15   2.0000      -1.332501       -36.2592
  16   2.0000      -1.299665       -35.3657
  17   2.0000      -1.272520       -34.6270
  18   2.0000      -1.225592       -33.3500
  19   2.0000      -1.215018       -33.0623
  20   2.0000      -1.061277       -28.8788
  21   2.0000      -1.032279       -28.0897
  22   2.0000      -0.983320       -26.7575
  23   2.0000      -0.894795       -24.3486
  24   2.0000      -0.878963       -23.9178
  25   2.0000      -0.873899       -23.7800
  26   2.0000      -0.869671       -23.6650
  27   2.0000      -0.849596       -23.1187
  28   2.0000      -0.808938       -22.0123
  29   2.0000      -0.793590       -21.5947
  30   2.0000      -0.769521       -20.9397
  31   2.0000      -0.754881       -20.5414
  32   2.0000      -0.743326       -20.2269
  33   2.0000      -0.737956       -20.0808
  34   2.0000      -0.721111       -19.6224
  35   2.0000      -0.708742       -19.2858
  36   2.0000      -0.704414       -19.1681
  37   2.0000      -0.697564       -18.9817
  38   2.0000      -0.682944       -18.5839
  39   2.0000      -0.669895       -18.2288
  40   2.0000      -0.654848       -17.8193
  41   2.0000      -0.642901       -17.4942
  42   2.0000      -0.630370       -17.1532
  43   2.0000      -0.621266       -16.9055
  44   2.0000      -0.554693       -15.0940
  45   2.0000      -0.548821       -14.9342
  46   2.0000      -0.538091       -14.6422
  47   2.0000      -0.524143       -14.2627
  48   2.0000      -0.515125       -14.0173
  49   2.0000      -0.506000       -13.7690
  50   0.0000      -0.083713        -2.2779
  51   0.0000      -0.060990        -1.6596
  52   0.0000      -0.048381        -1.3165
  53   0.0000      -0.029471        -0.8019
  54   0.0000      -0.017572        -0.4781

MULLIKEN ATOMIC CHARGES
-----------------------
   0 N :   -0.171768
   1 H :    0.191598
   2 C :   -0.061434
   3 C :    0.293729
   4 H :    0.133411
   5 H :    0.136625
   6 O :   -0.266685
   7 C :    0.340379
   8 C :   -0.105350
   9 O :   -0.483603
  10 N :   -0.165194
  11 H :    0.154769
  12 H :    0.156908
  13 H :    0.176798
  14 C :    0.190792
  15 C :   -0.140195
  16 O :   -0.316809
  17 H :    0.144567
  18 H :    0.172906
  19 O :   -0.292467
  20 H :    0.244587
  21 N :   -0.055284
  22 H :    0.242434
  23 H :    0.232801
  24 H :    0.246486
Sum of atomic charges:    1.0000000

LOEWDIN ATOMIC CHARGES
----------------------
   0 N :    0.349160
   1 H :   -0.014660
   2 C :   -0.019263
   3 C :   -0.432116
   4 H :    0.041458
   5 H :    0.042458
   6 O :    0.151185
   7 C :   -0.353605
   8 C :   -0.027920
   9 O :    0.075809
  10 N :    0.327111
  11 H :    0.036436
  12 H :    0.043308
  13 H :   -0.018359
  14 C :   -0.403617
  15 C :    0.039998
  16 O :    0.124820
  17 H :    0.028467
  18 H :    0.039073
  19 O :    0.349798
  20 H :   -0.075519
  21 N :    0.604946
  22 H :    0.056743
  23 H :    0.043478
  24 H :   -0.009190

  Mayer bond orders larger than 0.100000
B(  0-N ,  1-H ) :   0.9454 B(  0-N ,  2-C ) :   0.8715 B(  0-N ,  7-C ) :   1.3723
B(  2-C ,  3-C ) :   0.9507 B(  2-C ,  4-H ) :   0.9753 B(  2-C ,  5-H ) :   0.9781
B(  3-C ,  6-O ) :   2.1545 B(  3-C , 19-O ) :   1.1640 B(  7-C ,  8-C ) :   0.9298
B(  7-C ,  9-O ) :   1.7218 B(  8-C , 10-N ) :   0.9364 B(  8-C , 11-H ) :   0.9854
B(  8-C , 12-H ) :   0.9713 B(  9-O , 24-H ) :   0.1514 B( 10-N , 13-H ) :   0.9710
B( 10-N , 14-C ) :   1.2272 B( 14-C , 15-C ) :   0.9520 B( 14-C , 16-O ) :   2.0322
B( 15-C , 17-H ) :   0.9959 B( 15-C , 18-H ) :   0.9860 B( 15-C , 21-N ) :   0.8821
B( 19-O , 20-H ) :   0.9467 B( 21-N , 22-H ) :   0.9239 B( 21-N , 23-H ) :   0.9383
B( 21-N , 24-H ) :   0.8590

Dispersion correction           -0.042787113
FINAL SINGLE POINT ENERGY      -701.343575773469

DIPOLE MOMENT
-------------
                                X             Y             Z
Electronic contribution:     -2.82716       4.65481      -2.90488
Nuclear contribution   :      4.31610      -7.67053       4.64381
                        -----------------------------------------
Total Dipole Moment    :      1.48894      -3.01572       1.73893
                        -----------------------------------------
Magnitude (a.u.)       :      3.78621
Magnitude (Debye)      :      9.62379

Dispersion correction in the Hessian             ... done   (      0.5 sec)

VIBRATIONAL FREQUENCIES
-----------------------

Scaling factor for frequencies =  1.000000000  (already applied!)

   0:         0.00 cm**-1
   1:         0.00 cm**-1
   2:         0.00 cm**-1
   3:         0.00 cm**-1
   4:         0.00 cm**-1
   5:         0.00 cm**-1
   6:        17.36 cm**-1
   7:        38.35 cm**-1
   8:        52.12 cm**-1
   9:        67.73 cm**-1
  10:        94.48 cm**-1
  11:       124.99 cm**-1
  12:       164.93 cm**-1
  13:       170.02 cm**-1
  14:       263.57 cm**-1
  15:       269.80 cm**-1
  16:       295.84 cm**-1
  17:       314.83 cm**-1
  18:       346.90 cm**-1
  19:       405.29 cm**-1
  20:       438.33 cm**-1
  21:       510.37 cm**-1
  22:       549.27 cm**-1
  23:       552.37 cm**-1
  24:       587.23 cm**-1
  25:       602.21 cm**-1
  26:       619.46 cm**-1
  27:       671.12 cm**-1
  28:       684.32 cm**-1
  29:       731.39 cm**-1
  30:       785.54 cm**-1
  31:       869.33 cm**-1
  32:       879.11 cm**-1
  33:       912.13 cm**-1
  34:       979.53 cm**-1
  35:       986.83 cm**-1
  36:      1015.49 cm**-1
  37:      1057.05 cm**-1
  38:      1076.92 cm**-1
  39:      1128.67 cm**-1
  40:      1139.87 cm**-1
  41:      1157.85 cm**-1
  42:      1200.09 cm**-1
  43:      1269.26 cm**-1
  44:      1275.78 cm**-1
  45:      1284.75 cm**-1
  46:      1303.01 cm**-1
  47:      1334.35 cm**-1
  48:      1361.28 cm**-1
  49:      1390.95 cm**-1
  50:      1410.16 cm**-1
  51:      1422.13 cm**-1
  52:      1475.52 cm**-1
  53:      1494.56 cm**-1
  54:      1504.45 cm**-1
  55:      1538.50 cm**-1
  56:      1570.47 cm**-1
  57:      1602.61 cm**-1
  58:      1624.38 cm**-1
  59:      1682.19 cm**-1
  60:      1726.87 cm**-1
  61:      1819.14 cm**-1
  62:      1891.22 cm**-1
  63:      3025.40 cm**-1
  64:      3102.87 cm**-1
  65:      3119.14 cm**-1
  66:      3132.70 cm**-1
  67:      3143.97 cm**-1
  68:      3172.86 cm**-1
  69:      3203.11 cm**-1
  70:      3475.60 cm**-1
  71:      3556.13 cm**-1
  72:      3649.55 cm**-1
  73:      3660.37 cm**-1
  74:      3799.29 cm**-1

IR SPECTRUM
-----------

 Mode   freq       eps      Int      T**2         TX        TY        TZ
       cm**-1   L/(mol*cm) km/mol    a.u.
----------------------------------------------------------------------------
  6:     17.36   0.000053    0.27  0.000949  ( 0.003736 -0.016816  0.025549)
  7:     38.35   0.001255    6.34  0.010212  (-0.084551 -0.055344 -0.000348)
  8:     52.12   0.000479    2.42  0.002871  ( 0.028491 -0.000624  0.045374)
  9:     67.73   0.001173    5.93  0.005406  (-0.034249 -0.058394  0.028683)
 10:     94.48   0.002775   14.02  0.009166  (-0.065727  0.019423 -0.066848)
 11:    124.99   0.003644   18.42  0.009098  (-0.023343 -0.076400  0.052122)
 12:    164.93   0.003345   16.90  0.006328  ( 0.031564 -0.052618  0.050630)
 13:    170.02   0.005440   27.49  0.009984  ( 0.080891 -0.007109  0.058229)
 14:    263.57   0.004954   25.03  0.005865  (-0.074228  0.017034  0.008062)
 15:    269.80   0.009922   50.14  0.011476  (-0.054276  0.059616  0.070544)
 16:    295.84   0.002721   13.75  0.002870  ( 0.013059  0.012834 -0.050346)
 17:    314.83   0.000447    2.26  0.000443  (-0.015936  0.009738 -0.009699)
 18:    346.90   0.000305    1.54  0.000275  (-0.005367  0.012256  0.009785)
 19:    405.29   0.009963   50.35  0.007671  ( 0.064654 -0.047864  0.034641)
 20:    438.33   0.003830   19.36  0.002727  ( 0.029813 -0.033778  0.026402)
 21:    510.37   0.012675   64.05  0.007750  (-0.069130 -0.053132 -0.012168)
 22:    549.27   0.000965    4.88  0.000549  ( 0.013732 -0.016498  0.009370)
 23:    552.37   0.000679    3.43  0.000383  (-0.008584 -0.016903 -0.004894)
 24:    587.23   0.010109   51.09  0.005372  ( 0.058454  0.002562 -0.044144)
 25:    602.21   0.012670   64.03  0.006565  (-0.023218  0.069071 -0.035433)
 26:    619.46   0.003443   17.40  0.001735  ( 0.022384  0.018113  0.030093)
 27:    671.12   0.022497  113.69  0.010461  (-0.079870 -0.063883  0.000873)
 28:    684.32   0.013276   67.09  0.006054  (-0.038975  0.001479  0.067328)
 29:    731.39   0.003972   20.07  0.001695  (-0.034614  0.019560  0.010674)
 30:    785.54   0.002502   12.64  0.000994  (-0.003935  0.001872  0.031222)
 31:    869.33   0.001493    7.54  0.000536  (-0.009765  0.004339  0.020532)
 32:    879.11   0.001342    6.78  0.000477  (-0.006392  0.020839  0.001190)
 33:    912.13   0.002647   13.37  0.000905  ( 0.013282 -0.000536  0.026995)
 34:    979.53   0.002440   12.33  0.000777  ( 0.004817  0.003280 -0.027264)
 35:    986.83   0.004012   20.28  0.001269  ( 0.023487 -0.010755  0.024526)
 36:   1015.49   0.000545    2.75  0.000167  ( 0.009967  0.008211 -0.000852)
 37:   1057.05   0.000931    4.71  0.000275  (-0.016283  0.002564  0.001796)
 38:   1076.92   0.002430   12.28  0.000704  (-0.024460 -0.008892 -0.005182)
 39:   1128.67   0.002412   12.19  0.000667  ( 0.015998  0.002231 -0.020145)
 40:   1139.87   0.014460   73.07  0.003959  ( 0.039000 -0.048678  0.008253)
 41:   1157.85   0.003237   16.36  0.000873  (-0.012151 -0.001002 -0.026905)
 42:   1200.09   0.051207  258.78  0.013315  ( 0.075129 -0.077402 -0.040986)
 43:   1269.26   0.000479    2.42  0.000118  (-0.008424 -0.006691 -0.001441)
 44:   1275.78   0.006224   31.45  0.001522  ( 0.022473 -0.024791  0.020067)
 45:   1284.75   0.001511    7.64  0.000367  (-0.009956  0.004286 -0.015797)
 46:   1303.01   0.006582   33.26  0.001576  (-0.033832  0.020373  0.004089)
 47:   1334.35   0.004179   21.12  0.000977  (-0.022894  0.002077 -0.021187)
 48:   1361.28   0.002239   11.31  0.000513  (-0.016402  0.014016  0.006908)
 49:   1390.95   0.023850  120.53  0.005351  ( 0.047569 -0.055224 -0.006191)
 50:   1410.16   0.000512    2.59  0.000113  (-0.008105  0.006677  0.001751)
 51:   1422.13   0.000517    2.61  0.000113  (-0.006680  0.004301  0.007090)
 52:   1475.52   0.003456   17.46  0.000731  ( 0.000152  0.017497  0.020608)
 53:   1494.56   0.002407   12.16  0.000503  (-0.015990  0.015258 -0.003758)
 54:   1504.45   0.002566   12.97  0.000532  (-0.001943  0.019126 -0.012757)
 55:   1538.50   0.027895  140.97  0.005658  (-0.055056  0.026870  0.043647)
 56:   1570.47   0.040413  204.23  0.008030  ( 0.087401 -0.018342  0.007406)
 57:   1602.61   0.057451  290.33  0.011187  (-0.023957  0.040016 -0.094930)
 58:   1624.38   0.025835  130.56  0.004963  (-0.013436  0.065759 -0.021414)
 59:   1682.19   0.035996  181.91  0.006678  ( 0.058086 -0.055989  0.013002)
 60:   1726.87   0.064542  326.17  0.011663  ( 0.062510 -0.083620  0.027637)
 61:   1819.14   0.045271  228.78  0.007766  (-0.073104 -0.046367 -0.016490)
 62:   1891.22   0.070808  357.83  0.011684  (-0.005219 -0.011684  0.107331)
 63:   3025.40   0.172057  869.50  0.017747  ( 0.100135 -0.066977  0.056872)
 64:   3102.87   0.001294    6.54  0.000130  ( 0.002175 -0.004973  0.010033)
 65:   3119.14   0.002233   11.28  0.000223  ( 0.010843 -0.004483  0.009260)
 66:   3132.70   0.000828    4.18  0.000082  (-0.008921  0.000205 -0.001692)
 67:   3143.97   0.000046    0.23  0.000005  ( 0.002019  0.000658  0.000308)
 68:   3172.86   0.000159    0.80  0.000016  (-0.002169 -0.002591 -0.002061)
 69:   3203.11   0.000158    0.80  0.000015  ( 0.001312 -0.002622  0.002609)
 70:   3475.60   0.016960   85.71  0.001523  (-0.038461 -0.003607  0.005523)
 71:   3556.13   0.021504  108.67  0.001887  ( 0.007241 -0.041468 -0.010727)
 72:   3649.55   0.023261  117.55  0.001989  (-0.028269  0.034440 -0.001922)
 73:   3660.37   0.008936   45.16  0.000762  (-0.018379 -0.020414  0.002715)
 74:   3799.29   0.028560  144.33  0.002346  (-0.029706  0.036520 -0.011390)

--------------------------
THERMOCHEMISTRY AT 298.15K
--------------------------

Temperature         ... 298.15 K
Pressure            ... 1.00 atm
Total Mass          ... 190.18 AMU

Throughout the following assumptions are being made:
  (1) The electronic state is orbitally nondegenerate
  (2) There are no thermally accessible electronically excited states
  (3) Hindered rotations indicated by low frequency modes are not
      treated as such but are treated as vibrations and this may
      cause some error
  (4) All equations used are the standard statistical mechanics
      equations for an ideal gas
  (5) All vibrations are strictly harmonic

freq.      17.36  E(vib)   ...       0.57
freq.      38.35  E(vib)   ...       0.54
freq.      52.12  E(vib)   ...       0.52
freq.      67.73  E(vib)   ...       0.50
freq.      94.48  E(vib)   ...       0.47
freq.     124.99  E(vib)   ...       0.43
freq.     164.93  E(vib)   ...       0.39
freq.     170.02  E(vib)   ...       0.38
freq.     263.57  E(vib)   ...       0.29
freq.     269.80  E(vib)   ...       0.29
freq.     295.84  E(vib)   ...       0.27
freq.     314.83  E(vib)   ...       0.25
freq.     346.90  E(vib)   ...       0.23
freq.     405.29  E(vib)   ...       0.19
freq.     438.33  E(vib)   ...       0.17
freq.     510.37  E(vib)   ...       0.14
freq.     549.27  E(vib)   ...       0.12
freq.     552.37  E(vib)   ...       0.12
freq.     587.23  E(vib)   ...       0.10
freq.     602.21  E(vib)   ...       0.10
freq.     619.46  E(vib)   ...       0.09
freq.     671.12  E(vib)   ...       0.08
freq.     684.32  E(vib)   ...       0.07
freq.     731.39  E(vib)   ...       0.06
freq.     785.54  E(vib)   ...       0.05
freq.     869.33  E(vib)   ...       0.04
freq.     879.11  E(vib)   ...       0.04
freq.     912.13  E(vib)   ...       0.03
freq.     979.53  E(vib)   ...       0.03
freq.     986.83  E(vib)   ...       0.02
freq.    1015.49  E(vib)   ...       0.02
freq.    1057.05  E(vib)   ...       0.02
freq.    1076.92  E(vib)   ...       0.02
freq.    1128.67  E(vib)   ...       0.01
freq.    1139.87  E(vib)   ...       0.01
freq.    1157.85  E(vib)   ...       0.01
freq.    1200.09  E(vib)   ...       0.01
freq.    1269.26  E(vib)   ...       0.01
freq.    1275.78  E(vib)   ...       0.01
freq.    1284.75  E(vib)   ...       0.01
freq.    1303.01  E(vib)   ...       0.01
freq.    1334.35  E(vib)   ...       0.01
freq.    1361.28  E(vib)   ...       0.01
freq.    1390.95  E(vib)   ...       0.00
freq.    1410.16  E(vib)   ...       0.00
freq.    1422.13  E(vib)   ...       0.00
freq.    1475.52  E(vib)   ...       0.00
freq.    1494.56  E(vib)   ...       0.00
freq.    1504.45  E(vib)   ...       0.00
freq.    1538.50  E(vib)   ...       0.00
freq.    1570.47  E(vib)   ...       0.00
freq.    1602.61  E(vib)   ...       0.00
freq.    1624.38  E(vib)   ...       0.00
freq.    1682.19  E(vib)   ...       0.00
freq.    1726.87  E(vib)   ...       0.00
freq.    1819.14  E(vib)   ...       0.00
freq.    1891.22  E(vib)   ...       0.00
freq.    3025.40  E(vib)   ...       0.00
freq.    3102.87  E(vib)   ...       0.00
freq.    3119.14  E(vib)   ...       0.00
freq.    3132.70  E(vib)   ...       0.00
freq.    3143.97  E(vib)   ...       0.00
freq.    3172.86  E(vib)   ...       0.00
freq.    3203.11  E(vib)   ...       0.00
freq.    3475.60  E(vib)   ...       0.00
freq.    3556.13  E(vib)   ...       0.00
freq.    3649.55  E(vib)   ...       0.00
freq.    3660.37  E(vib)   ...       0.00
freq.    3799.29  E(vib)   ...       0.00

------------
INNER ENERGY
------------

The inner energy is: U= E(el) + E(ZPE) + E(vib) + E(rot) + E(trans)
    E(el)   - is the total energy from the electronic structure calculation
              = E(kin-el) + E(nuc-el) + E(el-el) + E(nuc-nuc)
    E(ZPE)  - the the zero temperature vibrational energy from the frequency calculation
    E(vib)  - the the finite temperature correction to E(ZPE) due to population
              of excited vibrational states
    E(rot)  - is the rotational thermal energy
    E(trans)- is the translational thermal energy

Summary of contributions to the inner energy U:
Electronic energy                ...   -701.34357577 Eh
Zero point energy                ...      0.20909767 Eh     131.21 kcal/mol
Thermal vibrational correction   ...      0.01079339 Eh       6.77 kcal/mol
Thermal rotational correction    ...      0.00141627 Eh       0.89 kcal/mol
Thermal translational correction ...      0.00141627 Eh       0.89 kcal/mol
-----------------------------------------------------------------------
Total thermal energy                   -701.12085217 Eh

Summary of corrections to the electronic energy:
(perhaps to be used in another calculation)
Total thermal correction                  0.01362593 Eh       8.55 kcal/mol
Non-thermal (ZPE) correction              0.20909767 Eh     131.21 kcal/mol
-----------------------------------------------------------------------
Total correction                          0.22272360 Eh     139.76 kcal/mol

--------
ENTHALPY
--------

The enthalpy is H = U + kB*T
                kB is Boltzmann's constant
Total free energy                 ...   -701.12085217 Eh
Thermal Enthalpy correction       ...      0.00094421 Eh       0.59 kcal/mol
-----------------------------------------------------------------------
Total Enthalpy                    ...   -701.11990796 Eh

Note: Only C1 symmetry has been detected, increase convergence thresholds
      if your molecule has a higher symmetry. Symmetry factor of 1.0 is
      used for the rotational entropy correction.

Note: Rotational entropy computed according to Herzberg
Infrared and Raman Spectra, Chapter V,1, Van Nostrand Reinhold, 1945
Point Group:  C1, Symmetry Number:   1
Rotational constants in cm-1:     0.064703     0.010842     0.009943

Vibrational entropy computed according to the QRRHO of S. Grimme
Chem.Eur.J. 2012 18 9955

-------
ENTROPY
-------

The entropy contributions are T*S = T*(S(el)+S(vib)+S(rot)+S(trans))
     S(el)   - electronic entropy
     S(vib)  - vibrational entropy
     S(rot)  - rotational entropy
     S(trans)- translational entropy
The entropies will be listed as multiplied by the temperature to get
units of energy

Electronic entropy                ...      0.00000000 Eh      0.00 kcal/mol
Vibrational entropy               ...      0.01949389 Eh     12.23 kcal/mol
Rotational entropy                ...      0.01511601 Eh      9.49 kcal/mol
Translational entropy             ...      0.01978162 Eh     12.41 kcal/mol
-----------------------------------------------------------------------

                             ****ORCA TERMINATED NORMALLY****
TOTAL RUN TIME: 0 days 2 hours 17 minutes 40 seconds 566 msec
