                         Program Version 5.0.2 -  RELEASE  -
|  1> # GGG-H_tt_030 (old 189)
|  2> ! wB97X-D3BJ Opt Freq def2-TZVPP def2/J RIJCOSX VeryTightSCF
|  3> ! PAL8 defgrid3 VeryTightOpt
|  4>
|  5> %maxcore 4096
|  6>
|  7> %geom
|  8>   MaxIter 300
|  9>   # MaxStep 0.1
| 10>   Calc_Hess true
| 11>   Recalc_Hess 10
| 12> end
| 13>
| 14> %chelpg
| 15>   grid 0.1
| 16>   rmax 3.0
| 17> end
| 18>
| 19> * xyz 1 1
| 20>  N   -1.126333   +1.901297   -2.906765
| 21>  H   -1.821676   +2.545160   -2.500771
| 22>  C   -1.030642   +2.018338   -4.350732
| 23>  C   -2.060680   +3.082711   -4.765086
| 24>  H   -0.012528   +2.323921   -4.658680
| 25>  H   -1.250338   +1.051863   -4.842517
| 26>  O   -2.753350   +3.639838   -3.942547
| 27>  C   -0.409521   +1.053779   -2.163781
| 28>  C   -0.646113   +1.134010   -0.632627
| 29>  O   +0.410772   +0.254379   -2.669881
| 30>  N   +0.000000   +0.000000   +0.000000
| 31>  H   -1.721534   +1.150718   -0.395692
| 32>  H   -0.189660   +2.061788   -0.249975
| 33>  H   -0.470989   -0.899055   -0.097333
| 34>  C   +1.368119   +0.000000   +0.000000
| 35>  C   +2.042983   -1.347847   -0.300403
| 36>  O   +2.061905   +1.008968   +0.000000
| 37>  H   +1.371680   -2.219382   -0.304509
| 38>  H   +2.913520   -1.532336   +0.345226
| 39>  O   -2.151784   +3.361202   -6.072577
| 40>  H   -1.526695   +2.829674   -6.603409
| 41>  N   +2.510545   -1.103333   -1.719189
| 42>  H   +3.246941   -0.377205   -1.698519
| 43>  H   +2.871792   -1.943041   -2.194267
| 44>  H   +1.674776   -0.656789   -2.244150
| 45> *
| 46>
| 47>                          ****END OF INPUT****
 Total Charge           Charge          ....    1
 Multiplicity           Mult            ....    1
 Number of Electrons    NEL             ....  100
Dispersion correction           -0.042664628
FINAL SINGLE POINT ENERGY      -701.335217348016
Dispersion correction            ... done
Dispersion correction in the Hessian             ... done   (      0.6 sec)
Dispersion correction           -0.042896231
FINAL SINGLE POINT ENERGY      -701.338729459332
Dispersion correction            ... done
Dispersion correction           -0.042901154
FINAL SINGLE POINT ENERGY      -701.338811011984
FINAL SINGLE POINT ENERGY      -701.338851012627
FINAL SINGLE POINT ENERGY      -701.338868881224
FINAL SINGLE POINT ENERGY      -701.338882145396
FINAL SINGLE POINT ENERGY      -701.338887930218
FINAL SINGLE POINT ENERGY      -701.338892648355
FINAL SINGLE POINT ENERGY      -701.338895944964
FINAL SINGLE POINT ENERGY      -701.338897551116
FINAL SINGLE POINT ENERGY      -701.338897994845
Dispersion correction            ... done
Dispersion correction in the Hessian             ... done   (      0.6 sec)
Dispersion correction           -0.042954601
FINAL SINGLE POINT ENERGY      -701.338898166082
Dispersion correction            ... done
                    ***********************HURRAY********************

CARTESIAN COORDINATES (ANGSTROEM)
---------------------------------
  N     -1.138025    1.911307   -2.871924
  H     -1.768286    2.579376   -2.443776
  C     -1.039947    2.016631   -4.310181
  C     -1.987494    3.129569   -4.747680
  H     -0.018146    2.257581   -4.616718
  H     -1.321814    1.075597   -4.790363
  O     -2.645284    3.747819   -3.960774
  C     -0.469030    1.017846   -2.154656
  C     -0.709216    1.080044   -0.634731
  O      0.292979    0.187162   -2.666496
  N      0.008290    0.004339    0.011434
  H     -1.773959    0.997493   -0.418218
  H     -0.356438    2.039052   -0.256308
  H     -0.422796   -0.903793   -0.038753
  C      1.361798    0.048761   -0.076682
  C      2.075589   -1.283002   -0.313840
  O      2.013661    1.065896   -0.163975
  H      1.439457   -2.163097   -0.245197
  H      2.952320   -1.389097    0.320665
  O     -2.041804    3.376930   -6.058447
  H     -1.459338    2.800543   -6.563871
  N      2.513523   -1.123556   -1.744837
  H      3.220727   -0.387015   -1.787423
  H      2.888446   -1.979301   -2.148886
  H      1.685978   -0.768426   -2.286548

 Multiplicity           Mult            ....    1
 Number of Electrons    NEL             ....  100
 Basis Dimension        Dim             ....  571

ORBITAL ENERGIES
----------------

  NO   OCC          E(Eh)            E(eV)
   0   2.0000     -19.382657      -527.4289
   1   2.0000     -19.346860      -526.4548
   2   2.0000     -19.346691      -526.4502
   3   2.0000     -19.322805      -525.8003
   4   2.0000     -14.699442      -399.9921
   5   2.0000     -14.596985      -397.2042
   6   2.0000     -14.588378      -396.9700
   7   2.0000     -10.544279      -286.9244
   8   2.0000     -10.536527      -286.7135
   9   2.0000     -10.532636      -286.6076
  10   2.0000     -10.511437      -286.0308
  11   2.0000     -10.468623      -284.8657
  12   2.0000     -10.461746      -284.6786
  13   2.0000      -1.365637       -37.1609
  14   2.0000      -1.355459       -36.8839
  15   2.0000      -1.332773       -36.2666
  16   2.0000      -1.300315       -35.3834
  17   2.0000      -1.282235       -34.8914
  18   2.0000      -1.225576       -33.3496
  19   2.0000      -1.214855       -33.0579
  20   2.0000      -1.061809       -28.8933
  21   2.0000      -1.033174       -28.1141
  22   2.0000      -0.981976       -26.7209
  23   2.0000      -0.894554       -24.3421
  24   2.0000      -0.881604       -23.9897
  25   2.0000      -0.875322       -23.8187
  26   2.0000      -0.863475       -23.4964
  27   2.0000      -0.852032       -23.1850
  28   2.0000      -0.820642       -22.3308
  29   2.0000      -0.797819       -21.7098
  30   2.0000      -0.770776       -20.9739
  31   2.0000      -0.757575       -20.6147
  32   2.0000      -0.749040       -20.3824
  33   2.0000      -0.741783       -20.1849
  34   2.0000      -0.733943       -19.9716
  35   2.0000      -0.706597       -19.2275
  36   2.0000      -0.699156       -19.0250
  37   2.0000      -0.698452       -19.0058
  38   2.0000      -0.683245       -18.5921
  39   2.0000      -0.667257       -18.1570
  40   2.0000      -0.656501       -17.8643
  41   2.0000      -0.642511       -17.4836
  42   2.0000      -0.623555       -16.9678
  43   2.0000      -0.619238       -16.8503
  44   2.0000      -0.552604       -15.0371
  45   2.0000      -0.551304       -15.0018
  46   2.0000      -0.537758       -14.6331
  47   2.0000      -0.523987       -14.2584
  48   2.0000      -0.517837       -14.0911
  49   2.0000      -0.513894       -13.9838
  50   0.0000      -0.084318        -2.2944
  51   0.0000      -0.061959        -1.6860
  52   0.0000      -0.048805        -1.3280
  53   0.0000      -0.030107        -0.8193
  54   0.0000      -0.020711        -0.5636

MULLIKEN ATOMIC CHARGES
-----------------------
   0 N :   -0.169996
   1 H :    0.196569
   2 C :   -0.125362
   3 C :    0.325231
   4 H :    0.132442
   5 H :    0.134048
   6 O :   -0.290175
   7 C :    0.330828
   8 C :   -0.099833
   9 O :   -0.487684
  10 N :   -0.168223
  11 H :    0.156693
  12 H :    0.159621
  13 H :    0.177287
  14 C :    0.192380
  15 C :   -0.141119
  16 O :   -0.316657
  17 H :    0.144597
  18 H :    0.173186
  19 O :   -0.204884
  20 H :    0.218720
  21 N :   -0.056814
  22 H :    0.242215
  23 H :    0.232004
  24 H :    0.244927
Sum of atomic charges:    1.0000000

LOEWDIN ATOMIC CHARGES
----------------------
   0 N :    0.353670
   1 H :   -0.009779
   2 C :   -0.038939
   3 C :   -0.432011
   4 H :    0.032845
   5 H :    0.033386
   6 O :    0.148363
   7 C :   -0.353378
   8 C :   -0.026039
   9 O :    0.070408
  10 N :    0.328300
  11 H :    0.037699
  12 H :    0.044742
  13 H :   -0.018459
  14 C :   -0.404486
  15 C :    0.040009
  16 O :    0.124777
  17 H :    0.028255
  18 H :    0.039027
  19 O :    0.402424
  20 H :   -0.092855
  21 N :    0.603900
  22 H :    0.056393
  23 H :    0.042628
  24 H :   -0.010878

  Mayer bond orders larger than 0.100000
B(  0-N ,  1-H ) :   0.9251 B(  0-N ,  2-C ) :   0.9047 B(  0-N ,  7-C ) :   1.3717
B(  2-C ,  3-C ) :   0.9566 B(  2-C ,  4-H ) :   0.9713 B(  2-C ,  5-H ) :   0.9752
B(  3-C ,  6-O ) :   2.0593 B(  3-C , 19-O ) :   1.2588 B(  7-C ,  8-C ) :   0.9308
B(  7-C ,  9-O ) :   1.7170 B(  8-C , 10-N ) :   0.9322 B(  8-C , 11-H ) :   0.9849
B(  8-C , 12-H ) :   0.9699 B(  9-O , 24-H ) :   0.1560 B( 10-N , 13-H ) :   0.9707
B( 10-N , 14-C ) :   1.2291 B( 14-C , 15-C ) :   0.9522 B( 14-C , 16-O ) :   2.0317
B( 15-C , 17-H ) :   0.9960 B( 15-C , 18-H ) :   0.9865 B( 15-C , 21-N ) :   0.8810
B( 19-O , 20-H ) :   0.9785 B( 21-N , 22-H ) :   0.9242 B( 21-N , 23-H ) :   0.9387
B( 21-N , 24-H ) :   0.8575

Dispersion correction           -0.042954200
FINAL SINGLE POINT ENERGY      -701.338898186450

DIPOLE MOMENT
-------------
                                X             Y             Z
Electronic contribution:     -3.45626       5.09615      -2.05665
Nuclear contribution   :      6.08553      -9.17079       2.44604
                        -----------------------------------------
Total Dipole Moment    :      2.62927      -4.07464       0.38939
                        -----------------------------------------
Magnitude (a.u.)       :      4.86491
Magnitude (Debye)      :     12.36563

Dispersion correction in the Hessian             ... done   (      0.6 sec)

VIBRATIONAL FREQUENCIES
-----------------------

Scaling factor for frequencies =  1.000000000  (already applied!)

   0:         0.00 cm**-1
   1:         0.00 cm**-1
   2:         0.00 cm**-1
   3:         0.00 cm**-1
   4:         0.00 cm**-1
   5:         0.00 cm**-1
   6:        24.41 cm**-1
   7:        60.43 cm**-1
   8:        63.39 cm**-1
   9:        69.10 cm**-1
  10:        93.15 cm**-1
  11:       129.60 cm**-1
  12:       167.93 cm**-1
  13:       183.97 cm**-1
  14:       266.28 cm**-1
  15:       268.76 cm**-1
  16:       303.29 cm**-1
  17:       308.73 cm**-1
  18:       350.67 cm**-1
  19:       403.68 cm**-1
  20:       433.59 cm**-1
  21:       450.45 cm**-1
  22:       539.88 cm**-1
  23:       558.18 cm**-1
  24:       585.61 cm**-1
  25:       593.78 cm**-1
  26:       652.79 cm**-1
  27:       676.01 cm**-1
  28:       693.47 cm**-1
  29:       736.82 cm**-1
  30:       787.75 cm**-1
  31:       878.40 cm**-1
  32:       888.87 cm**-1
  33:       913.05 cm**-1
  34:       980.45 cm**-1
  35:       994.70 cm**-1
  36:      1022.60 cm**-1
  37:      1056.92 cm**-1
  38:      1076.61 cm**-1
  39:      1135.45 cm**-1
  40:      1142.48 cm**-1
  41:      1162.69 cm**-1
  42:      1203.68 cm**-1
  43:      1261.97 cm**-1
  44:      1271.23 cm**-1
  45:      1281.67 cm**-1
  46:      1302.68 cm**-1
  47:      1314.31 cm**-1
  48:      1333.94 cm**-1
  49:      1381.85 cm**-1
  50:      1420.87 cm**-1
  51:      1434.89 cm**-1
  52:      1474.97 cm**-1
  53:      1502.20 cm**-1
  54:      1504.95 cm**-1
  55:      1541.42 cm**-1
  56:      1571.32 cm**-1
  57:      1601.11 cm**-1
  58:      1625.56 cm**-1
  59:      1681.92 cm**-1
  60:      1724.60 cm**-1
  61:      1819.18 cm**-1
  62:      1884.12 cm**-1
  63:      3003.30 cm**-1
  64:      3076.28 cm**-1
  65:      3117.73 cm**-1
  66:      3120.33 cm**-1
  67:      3132.80 cm**-1
  68:      3173.89 cm**-1
  69:      3203.62 cm**-1
  70:      3476.47 cm**-1
  71:      3557.07 cm**-1
  72:      3571.96 cm**-1
  73:      3661.91 cm**-1
  74:      3853.83 cm**-1

IR SPECTRUM
-----------

 Mode   freq       eps      Int      T**2         TX        TY        TZ
       cm**-1   L/(mol*cm) km/mol    a.u.
----------------------------------------------------------------------------
  6:     24.41   0.000299    1.51  0.003829  ( 0.020674  0.051158 -0.028000)
  7:     60.43   0.001138    5.75  0.005876  (-0.048954 -0.023451 -0.054125)
  8:     63.39   0.000154    0.78  0.000758  ( 0.026476  0.001579  0.007374)
  9:     69.10   0.000908    4.59  0.004103  ( 0.051585  0.034216  0.016459)
 10:     93.15   0.001214    6.14  0.004067  ( 0.052045  0.005953  0.036375)
 11:    129.60   0.006510   32.90  0.015675  (-0.011922 -0.100335  0.073928)
 12:    167.93   0.013484   68.14  0.025057  (-0.102228  0.058747 -0.105618)
 13:    183.97   0.001125    5.68  0.001908  (-0.026626 -0.034549 -0.002319)
 14:    266.28   0.004796   24.24  0.005620  ( 0.070126 -0.009439 -0.024769)
 15:    268.76   0.009968   50.37  0.011574  ( 0.045287 -0.049333 -0.084198)
 16:    303.29   0.001336    6.75  0.001375  ( 0.002726 -0.018721  0.031887)
 17:    308.73   0.002515   12.71  0.002542  ( 0.034561 -0.029637  0.021671)
 18:    350.67   0.000361    1.82  0.000321  ( 0.007557 -0.015989 -0.002896)
 19:    403.68   0.007915   40.00  0.006118  (-0.062236  0.042303 -0.021346)
 20:    433.59   0.001524    7.70  0.001097  (-0.020499  0.023564 -0.011025)
 21:    450.45   0.018166   91.80  0.012585  (-0.082642 -0.075143 -0.010413)
 22:    539.88   0.001715    8.67  0.000991  ( 0.012488 -0.022392  0.018273)
 23:    558.18   0.005124   25.89  0.002865  ( 0.040770  0.031338  0.014840)
 24:    585.61   0.006604   33.37  0.003519  (-0.035847 -0.025741  0.039641)
 25:    593.78   0.005178   26.17  0.002721  ( 0.030769  0.018559 -0.037818)
 26:    652.79   0.004743   23.97  0.002267  ( 0.010184 -0.029523  0.035943)
 27:    676.01   0.008282   41.85  0.003823  ( 0.000459  0.019971  0.058516)
 28:    693.47   0.013147   66.44  0.005916  (-0.061307 -0.032685  0.033003)
 29:    736.82   0.003247   16.41  0.001375  ( 0.027648 -0.015036 -0.019613)
 30:    787.75   0.002976   15.04  0.001179  ( 0.001693  0.000927 -0.034284)
 31:    878.40   0.001495    7.55  0.000531  ( 0.009442 -0.021018 -0.000365)
 32:    888.87   0.002010   10.16  0.000706  (-0.002243 -0.003390 -0.026253)
 33:    913.05   0.002581   13.04  0.000882  (-0.012852  0.000311 -0.026776)
 34:    980.45   0.000731    3.70  0.000233  (-0.008142 -0.003945  0.012287)
 35:    994.70   0.008812   44.53  0.002765  ( 0.038165 -0.030169  0.019949)
 36:   1022.60   0.000364    1.84  0.000111  (-0.007089 -0.007714  0.001190)
 37:   1056.92   0.001087    5.49  0.000321  ( 0.017375 -0.004046 -0.001590)
 38:   1076.61   0.002697   13.63  0.000782  ( 0.026879  0.006768  0.003653)
 39:   1135.45   0.002749   13.89  0.000755  ( 0.003973 -0.025359  0.009830)
 40:   1142.48   0.010725   54.20  0.002930  (-0.036188  0.038346 -0.012229)
 41:   1162.69   0.002591   13.09  0.000695  ( 0.017578 -0.007542  0.018152)
 42:   1203.68   0.001979   10.00  0.000513  (-0.002250  0.000580  0.022531)
 43:   1261.97   0.000323    1.63  0.000080  ( 0.007925  0.004117  0.000311)
 44:   1271.23   0.008125   41.06  0.001995  (-0.009051  0.010562 -0.042440)
 45:   1281.67   0.001831    9.25  0.000446  (-0.009169  0.013715  0.013176)
 46:   1302.68   0.008104   40.95  0.001941  ( 0.032869 -0.016413 -0.024321)
 47:   1314.31   0.059105  298.69  0.014034  ( 0.031031 -0.047803  0.103853)
 48:   1333.94   0.009365   47.33  0.002191  ( 0.029100 -0.010517  0.035119)
 49:   1381.85   0.022971  116.09  0.005188  (-0.031847  0.043500 -0.047761)
 50:   1420.87   0.001462    7.39  0.000321  ( 0.004585 -0.001809 -0.017231)
 51:   1434.89   0.034089  172.27  0.007414  (-0.014013  0.021564 -0.082173)
 52:   1474.97   0.003114   15.74  0.000659  ( 0.001196 -0.020000 -0.016043)
 53:   1502.20   0.004648   23.49  0.000966  ( 0.022795 -0.017684 -0.011545)
 54:   1504.95   0.003144   15.89  0.000652  ( 0.006614 -0.022638  0.009788)
 55:   1541.42   0.027346  138.20  0.005536  ( 0.053125 -0.024834 -0.045796)
 56:   1571.32   0.040016  202.22  0.007947  (-0.087315  0.017074 -0.005638)
 57:   1601.11   0.042551  215.04  0.008293  ( 0.015911 -0.026556  0.085645)
 58:   1625.56   0.029225  147.69  0.005610  ( 0.018861 -0.068659  0.023252)
 59:   1681.92   0.039952  201.90  0.007413  (-0.061987  0.058433 -0.012482)
 60:   1724.60   0.073159  369.71  0.013238  (-0.069582  0.087636 -0.026764)
 61:   1819.18   0.046188  233.42  0.007923  ( 0.074959  0.046023  0.013643)
 62:   1884.12   0.046045  232.69  0.007626  ( 0.045720 -0.043821 -0.060132)
 63:   3003.30   0.180241  910.86  0.018728  (-0.103687  0.069027 -0.056680)
 64:   3076.28   0.002635   13.32  0.000267  (-0.000869  0.004355 -0.015735)
 65:   3117.73   0.000363    1.83  0.000036  ( 0.004840  0.003464  0.000934)
 66:   3120.33   0.002123   10.73  0.000212  ( 0.010286 -0.003733  0.009622)
 67:   3132.80   0.000692    3.50  0.000069  (-0.008211 -0.000406 -0.001168)
 68:   3173.89   0.000213    1.07  0.000021  ( 0.002589  0.003125  0.002107)
 69:   3203.62   0.000144    0.73  0.000014  (-0.001188  0.002527 -0.002488)
 70:   3476.47   0.016921   85.51  0.001519  ( 0.038353  0.003271 -0.006105)
 71:   3557.07   0.022052  111.44  0.001935  (-0.007374  0.042037  0.010638)
 72:   3571.96   0.032621  164.85  0.002850  (-0.034659  0.039620 -0.008884)
 73:   3661.91   0.009086   45.92  0.000774  ( 0.018146  0.020895 -0.002906)
 74:   3853.83   0.017826   90.09  0.001443  (-0.014405  0.011675  0.033161)

--------------------------
THERMOCHEMISTRY AT 298.15K
--------------------------

Temperature         ... 298.15 K
Pressure            ... 1.00 atm
Total Mass          ... 190.18 AMU

Throughout the following assumptions are being made:
  (1) The electronic state is orbitally nondegenerate
  (2) There are no thermally accessible electronically excited states
  (3) Hindered rotations indicated by low frequency modes are not
      treated as such but are treated as vibrations and this may
      cause some error
  (4) All equations used are the standard statistical mechanics
      equations for an ideal gas
  (5) All vibrations are strictly harmonic

freq.      24.41  E(vib)   ...       0.56
freq.      60.43  E(vib)   ...       0.51
freq.      63.39  E(vib)   ...       0.51
freq.      69.10  E(vib)   ...       0.50
freq.      93.15  E(vib)   ...       0.47
freq.     129.60  E(vib)   ...       0.43
freq.     167.93  E(vib)   ...       0.38
freq.     183.97  E(vib)   ...       0.37
freq.     266.28  E(vib)   ...       0.29
freq.     268.76  E(vib)   ...       0.29
freq.     303.29  E(vib)   ...       0.26
freq.     308.73  E(vib)   ...       0.26
freq.     350.67  E(vib)   ...       0.23
freq.     403.68  E(vib)   ...       0.19
freq.     433.59  E(vib)   ...       0.17
freq.     450.45  E(vib)   ...       0.17
freq.     539.88  E(vib)   ...       0.12
freq.     558.18  E(vib)   ...       0.12
freq.     585.61  E(vib)   ...       0.11
freq.     593.78  E(vib)   ...       0.10
freq.     652.79  E(vib)   ...       0.08
freq.     676.01  E(vib)   ...       0.08
freq.     693.47  E(vib)   ...       0.07
freq.     736.82  E(vib)   ...       0.06
freq.     787.75  E(vib)   ...       0.05
freq.     878.40  E(vib)   ...       0.04
freq.     888.87  E(vib)   ...       0.04
freq.     913.05  E(vib)   ...       0.03
freq.     980.45  E(vib)   ...       0.02
freq.     994.70  E(vib)   ...       0.02
freq.    1022.60  E(vib)   ...       0.02
freq.    1056.92  E(vib)   ...       0.02
freq.    1076.61  E(vib)   ...       0.02
freq.    1135.45  E(vib)   ...       0.01
freq.    1142.48  E(vib)   ...       0.01
freq.    1162.69  E(vib)   ...       0.01
freq.    1203.68  E(vib)   ...       0.01
freq.    1261.97  E(vib)   ...       0.01
freq.    1271.23  E(vib)   ...       0.01
freq.    1281.67  E(vib)   ...       0.01
freq.    1302.68  E(vib)   ...       0.01
freq.    1314.31  E(vib)   ...       0.01
freq.    1333.94  E(vib)   ...       0.01
freq.    1381.85  E(vib)   ...       0.01
freq.    1420.87  E(vib)   ...       0.00
freq.    1434.89  E(vib)   ...       0.00
freq.    1474.97  E(vib)   ...       0.00
freq.    1502.20  E(vib)   ...       0.00
freq.    1504.95  E(vib)   ...       0.00
freq.    1541.42  E(vib)   ...       0.00
freq.    1571.32  E(vib)   ...       0.00
freq.    1601.11  E(vib)   ...       0.00
freq.    1625.56  E(vib)   ...       0.00
freq.    1681.92  E(vib)   ...       0.00
freq.    1724.60  E(vib)   ...       0.00
freq.    1819.18  E(vib)   ...       0.00
freq.    1884.12  E(vib)   ...       0.00
freq.    3003.30  E(vib)   ...       0.00
freq.    3076.28  E(vib)   ...       0.00
freq.    3117.73  E(vib)   ...       0.00
freq.    3120.33  E(vib)   ...       0.00
freq.    3132.80  E(vib)   ...       0.00
freq.    3173.89  E(vib)   ...       0.00
freq.    3203.62  E(vib)   ...       0.00
freq.    3476.47  E(vib)   ...       0.00
freq.    3557.07  E(vib)   ...       0.00
freq.    3571.96  E(vib)   ...       0.00
freq.    3661.91  E(vib)   ...       0.00
freq.    3853.83  E(vib)   ...       0.00

------------
INNER ENERGY
------------

The inner energy is: U= E(el) + E(ZPE) + E(vib) + E(rot) + E(trans)
    E(el)   - is the total energy from the electronic structure calculation
              = E(kin-el) + E(nuc-el) + E(el-el) + E(nuc-nuc)
    E(ZPE)  - the the zero temperature vibrational energy from the frequency calculation
    E(vib)  - the the finite temperature correction to E(ZPE) due to population
              of excited vibrational states
    E(rot)  - is the rotational thermal energy
    E(trans)- is the translational thermal energy

Summary of contributions to the inner energy U:
Electronic energy                ...   -701.33889819 Eh
Zero point energy                ...      0.20900277 Eh     131.15 kcal/mol
Thermal vibrational correction   ...      0.01069313 Eh       6.71 kcal/mol
Thermal rotational correction    ...      0.00141627 Eh       0.89 kcal/mol
Thermal translational correction ...      0.00141627 Eh       0.89 kcal/mol
-----------------------------------------------------------------------
Total thermal energy                   -701.11636974 Eh

Summary of corrections to the electronic energy:
(perhaps to be used in another calculation)
Total thermal correction                  0.01352567 Eh       8.49 kcal/mol
Non-thermal (ZPE) correction              0.20900277 Eh     131.15 kcal/mol
-----------------------------------------------------------------------
Total correction                          0.22252844 Eh     139.64 kcal/mol

--------
ENTHALPY
--------

The enthalpy is H = U + kB*T
                kB is Boltzmann's constant
Total free energy                 ...   -701.11636974 Eh
Thermal Enthalpy correction       ...      0.00094421 Eh       0.59 kcal/mol
-----------------------------------------------------------------------
Total Enthalpy                    ...   -701.11542554 Eh

Note: Only C1 symmetry has been detected, increase convergence thresholds
      if your molecule has a higher symmetry. Symmetry factor of 1.0 is
      used for the rotational entropy correction.

Note: Rotational entropy computed according to Herzberg
Infrared and Raman Spectra, Chapter V,1, Van Nostrand Reinhold, 1945
Point Group:  C1, Symmetry Number:   1
Rotational constants in cm-1:     0.065982     0.010736     0.009869

Vibrational entropy computed according to the QRRHO of S. Grimme
Chem.Eur.J. 2012 18 9955

-------
ENTROPY
-------

The entropy contributions are T*S = T*(S(el)+S(vib)+S(rot)+S(trans))
     S(el)   - electronic entropy
     S(vib)  - vibrational entropy
     S(rot)  - rotational entropy
     S(trans)- translational entropy
The entropies will be listed as multiplied by the temperature to get
units of energy

Electronic entropy                ...      0.00000000 Eh      0.00 kcal/mol
Vibrational entropy               ...      0.01903478 Eh     11.94 kcal/mol
Rotational entropy                ...      0.01511497 Eh      9.48 kcal/mol
Translational entropy             ...      0.01978162 Eh     12.41 kcal/mol
-----------------------------------------------------------------------

                             ****ORCA TERMINATED NORMALLY****
TOTAL RUN TIME: 0 days 2 hours 11 minutes 54 seconds 982 msec
