                         Program Version 5.0.2 -  RELEASE  -
|  1> # GGG-H_tt_014 (old 060)
|  2> ! wB97X-D3BJ Opt Freq def2-TZVPP def2/J RIJCOSX VeryTightSCF
|  3> ! PAL8 defgrid3 VeryTightOpt
|  4>
|  5> %maxcore 4096
|  6>
|  7> %geom
|  8>   MaxIter 300
|  9>   # MaxStep 0.1
| 10>   Calc_Hess true
| 11>   Recalc_Hess 10
| 12> end
| 13>
| 14> %chelpg
| 15>   grid 0.1
| 16>   rmax 3.0
| 17> end
| 18>
| 19> * xyz 1 1
| 20>  N   -1.116990   +1.874904   -2.929130
| 21>  H   -1.806393   +2.524531   -2.527429
| 22>  C   -1.002496   +1.967249   -4.375749
| 23>  C   -2.000159   +3.027293   -4.828709
| 24>  H   +0.019004   +2.254701   -4.683837
| 25>  H   -1.229343   +1.001433   -4.861867
| 26>  O   -2.716058   +3.632201   -4.053725
| 27>  C   -0.405690   +1.035553   -2.172089
| 28>  C   -0.644028   +1.130411   -0.641929
| 29>  O   +0.414446   +0.228598   -2.666353
| 30>  N   +0.000000   +0.000000   +0.000000
| 31>  H   -1.719456   +1.151111   -0.405182
| 32>  H   -0.184823   +2.059562   -0.266085
| 33>  H   -0.468088   -0.900076   -0.102475
| 34>  C   +1.368519   +0.000000   +0.000000
| 35>  C   +2.044723   -1.348391   -0.294972
| 36>  O   +2.062072   +1.009169   +0.000000
| 37>  H   +1.373662   -2.220112   -0.299068
| 38>  H   +2.912660   -1.530899   +0.354753
| 39>  O   -1.976859   +3.192582   -6.154748
| 40>  H   -2.635000   +3.884037   -6.385959
| 41>  N   +2.517559   -1.109265   -1.712653
| 42>  H   +3.252195   -0.381400   -1.693118
| 43>  H   +2.881883   -1.950250   -2.182970
| 44>  H   +1.681435   -0.666973   -2.242460
| 45> *
| 46>
| 47>                          ****END OF INPUT****
 Total Charge           Charge          ....    1
 Multiplicity           Mult            ....    1
 Number of Electrons    NEL             ....  100
Dispersion correction           -0.042529546
FINAL SINGLE POINT ENERGY      -701.346080013058
Dispersion correction            ... done
Dispersion correction in the Hessian             ... done   (      0.8 sec)
Dispersion correction           -0.042752987
FINAL SINGLE POINT ENERGY      -701.349534067785
Dispersion correction            ... done
Dispersion correction           -0.042756988
FINAL SINGLE POINT ENERGY      -701.349613550868
FINAL SINGLE POINT ENERGY      -701.349653223014
FINAL SINGLE POINT ENERGY      -701.349672766055
FINAL SINGLE POINT ENERGY      -701.349687798011
FINAL SINGLE POINT ENERGY      -701.349694706245
FINAL SINGLE POINT ENERGY      -701.349700378848
FINAL SINGLE POINT ENERGY      -701.349704420996
FINAL SINGLE POINT ENERGY      -701.349706269229
FINAL SINGLE POINT ENERGY      -701.349706628908
Dispersion correction            ... done
Dispersion correction in the Hessian             ... done   (      0.7 sec)
Dispersion correction           -0.042811723
FINAL SINGLE POINT ENERGY      -701.349707026613
Dispersion correction            ... done
                    ***********************HURRAY********************

CARTESIAN COORDINATES (ANGSTROEM)
---------------------------------
  N     -1.133495    1.876565   -2.893469
  H     -1.760159    2.549783   -2.471026
  C     -1.019868    1.957073   -4.334484
  C     -1.940470    3.063470   -4.807589
  H      0.003604    2.181451   -4.641783
  H     -1.307297    1.016884   -4.809260
  O     -2.621850    3.721373   -4.066381
  C     -0.467524    0.993416   -2.161383
  C     -0.707767    1.073427   -0.642103
  O      0.294844    0.155274   -2.660284
  N      0.012847    0.006336    0.015694
  H     -1.772094    0.990570   -0.423625
  H     -0.356416    2.037022   -0.274293
  H     -0.413886   -0.903984   -0.033237
  C      1.366622    0.053689   -0.076287
  C      2.083701   -1.277687   -0.306691
  O      2.015399    1.072202   -0.169202
  H      1.449956   -2.158775   -0.229104
  H      2.962176   -1.376598    0.326573
  O     -1.891464    3.204497   -6.130469
  H     -2.491773    3.918967   -6.385615
  N      2.517058   -1.129217   -1.739929
  H      3.223440   -0.392643   -1.791877
  H      2.891188   -1.987844   -2.138446
  H      1.686004   -0.779281   -2.281484

 Multiplicity           Mult            ....    1
 Number of Electrons    NEL             ....  100
 Basis Dimension        Dim             ....  571

ORBITAL ENERGIES
----------------

  NO   OCC          E(Eh)            E(eV)
   0   2.0000     -19.381118      -527.3870
   1   2.0000     -19.344292      -526.3850
   2   2.0000     -19.343107      -526.3527
   3   2.0000     -19.326734      -525.9072
   4   2.0000     -14.695799      -399.8930
   5   2.0000     -14.594286      -397.1307
   6   2.0000     -14.585039      -396.8791
   7   2.0000     -10.541760      -286.8559
   8   2.0000     -10.532934      -286.6157
   9   2.0000     -10.532279      -286.5979
  10   2.0000     -10.508658      -285.9551
  11   2.0000     -10.466188      -284.7995
  12   2.0000     -10.452022      -284.4140
  13   2.0000      -1.368806       -37.2471
  14   2.0000      -1.352753       -36.8103
  15   2.0000      -1.329456       -36.1763
  16   2.0000      -1.297038       -35.2942
  17   2.0000      -1.278259       -34.7832
  18   2.0000      -1.222881       -33.2763
  19   2.0000      -1.211115       -32.9561
  20   2.0000      -1.058945       -28.8154
  21   2.0000      -1.031768       -28.0758
  22   2.0000      -0.982930       -26.7469
  23   2.0000      -0.891766       -24.2662
  24   2.0000      -0.883383       -24.0381
  25   2.0000      -0.872548       -23.7432
  26   2.0000      -0.859264       -23.3818
  27   2.0000      -0.848820       -23.0976
  28   2.0000      -0.804382       -21.8883
  29   2.0000      -0.791241       -21.5308
  30   2.0000      -0.764217       -20.7954
  31   2.0000      -0.745176       -20.2773
  32   2.0000      -0.743727       -20.2378
  33   2.0000      -0.734659       -19.9911
  34   2.0000      -0.724061       -19.7027
  35   2.0000      -0.718035       -19.5387
  36   2.0000      -0.704149       -19.1609
  37   2.0000      -0.692919       -18.8553
  38   2.0000      -0.683397       -18.5962
  39   2.0000      -0.674397       -18.3513
  40   2.0000      -0.653910       -17.7938
  41   2.0000      -0.639839       -17.4109
  42   2.0000      -0.623804       -16.9746
  43   2.0000      -0.619158       -16.8481
  44   2.0000      -0.554234       -15.0815
  45   2.0000      -0.548254       -14.9188
  46   2.0000      -0.535288       -14.5659
  47   2.0000      -0.520834       -14.1726
  48   2.0000      -0.515960       -14.0400
  49   2.0000      -0.514179       -13.9915
  50   0.0000      -0.081600        -2.2204
  51   0.0000      -0.059002        -1.6055
  52   0.0000      -0.045350        -1.2340
  53   0.0000      -0.027524        -0.7490
  54   0.0000      -0.019642        -0.5345

MULLIKEN ATOMIC CHARGES
-----------------------
   0 N :   -0.171653
   1 H :    0.195104
   2 C :   -0.060433
   3 C :    0.303689
   4 H :    0.131899
   5 H :    0.134510
   6 O :   -0.314549
   7 C :    0.337017
   8 C :   -0.100736
   9 O :   -0.484944
  10 N :   -0.167533
  11 H :    0.155310
  12 H :    0.158261
  13 H :    0.176631
  14 C :    0.191142
  15 C :   -0.140830
  16 O :   -0.316368
  17 H :    0.143937
  18 H :    0.172299
  19 O :   -0.252526
  20 H :    0.248206
  21 N :   -0.056162
  22 H :    0.241651
  23 H :    0.231623
  24 H :    0.244454
Sum of atomic charges:    1.0000000

LOEWDIN ATOMIC CHARGES
----------------------
   0 N :    0.354088
   1 H :   -0.008973
   2 C :   -0.023074
   3 C :   -0.434842
   4 H :    0.038345
   5 H :    0.039132
   6 O :    0.122659
   7 C :   -0.353297
   8 C :   -0.026758
   9 O :    0.074877
  10 N :    0.327252
  11 H :    0.036968
  12 H :    0.044050
  13 H :   -0.018722
  14 C :   -0.404134
  15 C :    0.039327
  16 O :    0.124763
  17 H :    0.028141
  18 H :    0.038720
  19 O :    0.385710
  20 H :   -0.072665
  21 N :    0.603768
  22 H :    0.056096
  23 H :    0.042379
  24 H :   -0.013809

  Mayer bond orders larger than 0.100000
B(  0-N ,  1-H ) :   0.9305 B(  0-N ,  2-C ) :   0.8994 B(  0-N ,  7-C ) :   1.3777
B(  2-C ,  3-C ) :   0.9585 B(  2-C ,  4-H ) :   0.9713 B(  2-C ,  5-H ) :   0.9742
B(  3-C ,  6-O ) :   2.0382 B(  3-C , 19-O ) :   1.2757 B(  7-C ,  8-C ) :   0.9307
B(  7-C ,  9-O ) :   1.7147 B(  8-C , 10-N ) :   0.9332 B(  8-C , 11-H ) :   0.9854
B(  8-C , 12-H ) :   0.9704 B(  9-O , 24-H ) :   0.1607 B( 10-N , 13-H ) :   0.9711
B( 10-N , 14-C ) :   1.2281 B( 14-C , 15-C ) :   0.9522 B( 14-C , 16-O ) :   2.0337
B( 15-C , 17-H ) :   0.9960 B( 15-C , 18-H ) :   0.9866 B( 15-C , 21-N ) :   0.8820
B( 19-O , 20-H ) :   0.9470 B( 21-N , 22-H ) :   0.9248 B( 21-N , 23-H ) :   0.9389
B( 21-N , 24-H ) :   0.8548

Dispersion correction           -0.042811506
FINAL SINGLE POINT ENERGY      -701.349707010838

DIPOLE MOMENT
-------------
                                X             Y             Z
Electronic contribution:     -3.16153       4.78837      -2.28178
Nuclear contribution   :      5.01372      -8.00094       2.79440
                        -----------------------------------------
Total Dipole Moment    :      1.85219      -3.21257       0.51263
                        -----------------------------------------
Magnitude (a.u.)       :      3.74353
Magnitude (Debye)      :      9.51529

Dispersion correction in the Hessian             ... done   (      0.7 sec)

VIBRATIONAL FREQUENCIES
-----------------------

Scaling factor for frequencies =  1.000000000  (already applied!)

   0:         0.00 cm**-1
   1:         0.00 cm**-1
   2:         0.00 cm**-1
   3:         0.00 cm**-1
   4:         0.00 cm**-1
   5:         0.00 cm**-1
   6:        25.00 cm**-1
   7:        60.26 cm**-1
   8:        63.25 cm**-1
   9:        67.83 cm**-1
  10:        93.12 cm**-1
  11:       128.94 cm**-1
  12:       169.35 cm**-1
  13:       183.11 cm**-1
  14:       265.74 cm**-1
  15:       268.73 cm**-1
  16:       301.34 cm**-1
  17:       307.40 cm**-1
  18:       351.88 cm**-1
  19:       403.83 cm**-1
  20:       433.15 cm**-1
  21:       522.18 cm**-1
  22:       538.06 cm**-1
  23:       563.72 cm**-1
  24:       590.67 cm**-1
  25:       636.20 cm**-1
  26:       660.79 cm**-1
  27:       671.39 cm**-1
  28:       687.35 cm**-1
  29:       734.28 cm**-1
  30:       787.56 cm**-1
  31:       878.19 cm**-1
  32:       889.42 cm**-1
  33:       912.79 cm**-1
  34:       981.54 cm**-1
  35:       996.88 cm**-1
  36:      1025.32 cm**-1
  37:      1057.03 cm**-1
  38:      1076.45 cm**-1
  39:      1132.39 cm**-1
  40:      1141.91 cm**-1
  41:      1159.85 cm**-1
  42:      1208.01 cm**-1
  43:      1251.88 cm**-1
  44:      1274.66 cm**-1
  45:      1282.17 cm**-1
  46:      1302.38 cm**-1
  47:      1331.35 cm**-1
  48:      1337.20 cm**-1
  49:      1387.23 cm**-1
  50:      1421.02 cm**-1
  51:      1464.78 cm**-1
  52:      1475.98 cm**-1
  53:      1496.34 cm**-1
  54:      1504.87 cm**-1
  55:      1541.10 cm**-1
  56:      1570.76 cm**-1
  57:      1605.75 cm**-1
  58:      1625.03 cm**-1
  59:      1681.90 cm**-1
  60:      1725.27 cm**-1
  61:      1819.45 cm**-1
  62:      1854.80 cm**-1
  63:      2987.13 cm**-1
  64:      3097.19 cm**-1
  65:      3120.27 cm**-1
  66:      3132.62 cm**-1
  67:      3138.96 cm**-1
  68:      3173.90 cm**-1
  69:      3203.28 cm**-1
  70:      3477.61 cm**-1
  71:      3557.78 cm**-1
  72:      3590.03 cm**-1
  73:      3660.97 cm**-1
  74:      3796.89 cm**-1

IR SPECTRUM
-----------

 Mode   freq       eps      Int      T**2         TX        TY        TZ
       cm**-1   L/(mol*cm) km/mol    a.u.
----------------------------------------------------------------------------
  6:     25.00   0.000157    0.79  0.001963  ( 0.028420 -0.005447  0.033548)
  7:     60.26   0.000467    2.36  0.002417  ( 0.013581 -0.007970  0.046571)
  8:     63.25   0.000206    1.04  0.001015  (-0.030918 -0.007230 -0.002522)
  9:     67.83   0.000707    3.57  0.003253  (-0.044019 -0.033489  0.013928)
 10:     93.12   0.001632    8.25  0.005470  (-0.049527 -0.003957 -0.054785)
 11:    128.94   0.005151   26.03  0.012467  (-0.009404 -0.092828  0.061333)
 12:    169.35   0.011257   56.89  0.020744  ( 0.098776 -0.055297  0.089046)
 13:    183.11   0.000832    4.20  0.001417  ( 0.024778  0.027922  0.004855)
 14:    265.74   0.005676   28.68  0.006665  (-0.075881  0.015056  0.026087)
 15:    268.73   0.007958   40.22  0.009241  (-0.041268  0.052428  0.069207)
 16:    301.34   0.001303    6.59  0.001350  ( 0.018068  0.000285 -0.031990)
 17:    307.40   0.001458    7.37  0.001480  (-0.027098  0.027200 -0.002440)
 18:    351.88   0.000396    2.00  0.000351  (-0.006217  0.012704  0.012299)
 19:    403.83   0.010484   52.98  0.008102  ( 0.064806 -0.047551  0.040506)
 20:    433.15   0.003777   19.09  0.002721  ( 0.021923 -0.028072  0.038114)
 21:    522.18   0.007897   39.91  0.004719  ( 0.053000  0.042729  0.009188)
 22:    538.06   0.001598    8.07  0.000927  (-0.008746  0.011511  0.026788)
 23:    563.72   0.001104    5.58  0.000611  (-0.011866 -0.002397 -0.021557)
 24:    590.67   0.013943   70.46  0.007366  (-0.039169 -0.032421  0.069144)
 25:    636.20   0.012157   61.44  0.005963  (-0.023212  0.041705 -0.060704)
 26:    660.79   0.005634   28.47  0.002661  (-0.038045 -0.029585  0.018387)
 27:    671.39   0.020337  102.77  0.009453  ( 0.063615  0.063719  0.036684)
 28:    687.35   0.014661   74.09  0.006656  ( 0.061646  0.026125 -0.046622)
 29:    734.28   0.002667   13.48  0.001133  (-0.028530  0.017293  0.004518)
 30:    787.56   0.002183   11.03  0.000865  (-0.001833  0.000056  0.029354)
 31:    878.19   0.001616    8.16  0.000574  (-0.009590  0.019862  0.009362)
 32:    889.42   0.001142    5.77  0.000401  (-0.002890 -0.009212  0.017536)
 33:    912.79   0.002594   13.11  0.000887  ( 0.013117 -0.000375  0.026730)
 34:    981.54   0.001179    5.96  0.000375  ( 0.009302  0.003691 -0.016574)
 35:    996.88   0.013336   67.40  0.004175  ( 0.038290 -0.032936  0.040297)
 36:   1025.32   0.000590    2.98  0.000179  ( 0.009906  0.008979 -0.000828)
 37:   1057.03   0.001070    5.41  0.000316  (-0.017260  0.004245  0.000120)
 38:   1076.45   0.002856   14.43  0.000828  (-0.027017 -0.005890 -0.007965)
 39:   1132.39   0.006100   30.83  0.001681  ( 0.000193  0.023072 -0.033891)
 40:   1141.91   0.010507   53.10  0.002871  ( 0.035497 -0.040045  0.002785)
 41:   1159.85   0.008873   44.84  0.002387  (-0.021267  0.012323 -0.042226)
 42:   1208.01   0.043228  218.46  0.011167  ( 0.013945 -0.029780  0.100427)
 43:   1251.88   0.000487    2.46  0.000121  (-0.009216 -0.005596 -0.002280)
 44:   1274.66   0.000306    1.55  0.000075  ( 0.007614 -0.004102  0.000430)
 45:   1282.17   0.001365    6.90  0.000332  ( 0.008086 -0.016113  0.002679)
 46:   1302.38   0.008703   43.98  0.002085  (-0.038130  0.025099 -0.001221)
 47:   1331.35   0.001464    7.40  0.000343  ( 0.010728  0.006686  0.013541)
 48:   1337.20   0.005770   29.16  0.001347  (-0.026858  0.015454 -0.019659)
 49:   1387.23   0.013428   67.86  0.003021  ( 0.030816 -0.039493  0.022614)
 50:   1421.02   0.000667    3.37  0.000146  (-0.005631  0.003142  0.010242)
 51:   1464.78   0.030473  154.00  0.006492  ( 0.021119 -0.023959  0.073973)
 52:   1475.98   0.003853   19.47  0.000815  (-0.007606  0.027506  0.000335)
 53:   1496.34   0.005637   28.49  0.001176  (-0.022194  0.018304  0.018654)
 54:   1504.87   0.002263   11.44  0.000469  (-0.002587  0.018714 -0.010604)
 55:   1541.10   0.027643  139.70  0.005598  (-0.054026  0.027688  0.043729)
 56:   1570.76   0.039648  200.36  0.007877  ( 0.087209 -0.016124  0.003391)
 57:   1605.75   0.038863  196.40  0.007553  (-0.016190  0.021900 -0.082529)
 58:   1625.03   0.032340  163.43  0.006211  (-0.020226  0.070168 -0.029630)
 59:   1681.90   0.040528  204.81  0.007520  ( 0.062399 -0.058750  0.013209)
 60:   1725.27   0.074853  378.27  0.013539  ( 0.070590 -0.088211  0.027840)
 61:   1819.45   0.046126  233.10  0.007911  (-0.075245 -0.045829 -0.012219)
 62:   1854.80   0.055524  280.60  0.009342  (-0.044268  0.042278  0.074798)
 63:   2987.13   0.187248  946.27  0.019562  (-0.106448  0.069852 -0.057889)
 64:   3097.19   0.001693    8.56  0.000171  ( 0.002622 -0.005178  0.011700)
 65:   3120.27   0.002094   10.58  0.000209  ( 0.010490 -0.003780  0.009223)
 66:   3132.62   0.000630    3.18  0.000063  (-0.007843 -0.000740 -0.000818)
 67:   3138.96   0.000099    0.50  0.000010  ( 0.002721  0.001517  0.000311)
 68:   3173.90   0.000188    0.95  0.000018  (-0.002335 -0.002936 -0.002097)
 69:   3203.28   0.000127    0.64  0.000012  ( 0.000941 -0.002452  0.002334)
 70:   3477.61   0.016767   84.73  0.001505  ( 0.038112  0.003113 -0.006508)
 71:   3557.78   0.021228  107.28  0.001862  (-0.006541  0.041350  0.010457)
 72:   3590.03   0.030064  151.93  0.002613  (-0.032974  0.038260 -0.007887)
 73:   3660.97   0.008887   44.91  0.000758  ( 0.017829  0.020763 -0.002923)
 74:   3796.89   0.028879  145.94  0.002374  ( 0.023753 -0.030745  0.029395)

--------------------------
THERMOCHEMISTRY AT 298.15K
--------------------------

Temperature         ... 298.15 K
Pressure            ... 1.00 atm
Total Mass          ... 190.18 AMU

Throughout the following assumptions are being made:
  (1) The electronic state is orbitally nondegenerate
  (2) There are no thermally accessible electronically excited states
  (3) Hindered rotations indicated by low frequency modes are not
      treated as such but are treated as vibrations and this may
      cause some error
  (4) All equations used are the standard statistical mechanics
      equations for an ideal gas
  (5) All vibrations are strictly harmonic

freq.      25.00  E(vib)   ...       0.56
freq.      60.26  E(vib)   ...       0.51
freq.      63.25  E(vib)   ...       0.51
freq.      67.83  E(vib)   ...       0.50
freq.      93.12  E(vib)   ...       0.47
freq.     128.94  E(vib)   ...       0.43
freq.     169.35  E(vib)   ...       0.38
freq.     183.11  E(vib)   ...       0.37
freq.     265.74  E(vib)   ...       0.29
freq.     268.73  E(vib)   ...       0.29
freq.     301.34  E(vib)   ...       0.26
freq.     307.40  E(vib)   ...       0.26
freq.     351.88  E(vib)   ...       0.23
freq.     403.83  E(vib)   ...       0.19
freq.     433.15  E(vib)   ...       0.17
freq.     522.18  E(vib)   ...       0.13
freq.     538.06  E(vib)   ...       0.12
freq.     563.72  E(vib)   ...       0.11
freq.     590.67  E(vib)   ...       0.10
freq.     636.20  E(vib)   ...       0.09
freq.     660.79  E(vib)   ...       0.08
freq.     671.39  E(vib)   ...       0.08
freq.     687.35  E(vib)   ...       0.07
freq.     734.28  E(vib)   ...       0.06
freq.     787.56  E(vib)   ...       0.05
freq.     878.19  E(vib)   ...       0.04
freq.     889.42  E(vib)   ...       0.04
freq.     912.79  E(vib)   ...       0.03
freq.     981.54  E(vib)   ...       0.02
freq.     996.88  E(vib)   ...       0.02
freq.    1025.32  E(vib)   ...       0.02
freq.    1057.03  E(vib)   ...       0.02
freq.    1076.45  E(vib)   ...       0.02
freq.    1132.39  E(vib)   ...       0.01
freq.    1141.91  E(vib)   ...       0.01
freq.    1159.85  E(vib)   ...       0.01
freq.    1208.01  E(vib)   ...       0.01
freq.    1251.88  E(vib)   ...       0.01
freq.    1274.66  E(vib)   ...       0.01
freq.    1282.17  E(vib)   ...       0.01
freq.    1302.38  E(vib)   ...       0.01
freq.    1331.35  E(vib)   ...       0.01
freq.    1337.20  E(vib)   ...       0.01
freq.    1387.23  E(vib)   ...       0.00
freq.    1421.02  E(vib)   ...       0.00
freq.    1464.78  E(vib)   ...       0.00
freq.    1475.98  E(vib)   ...       0.00
freq.    1496.34  E(vib)   ...       0.00
freq.    1504.87  E(vib)   ...       0.00
freq.    1541.10  E(vib)   ...       0.00
freq.    1570.76  E(vib)   ...       0.00
freq.    1605.75  E(vib)   ...       0.00
freq.    1625.03  E(vib)   ...       0.00
freq.    1681.90  E(vib)   ...       0.00
freq.    1725.27  E(vib)   ...       0.00
freq.    1819.45  E(vib)   ...       0.00
freq.    1854.80  E(vib)   ...       0.00
freq.    2987.13  E(vib)   ...       0.00
freq.    3097.19  E(vib)   ...       0.00
freq.    3120.27  E(vib)   ...       0.00
freq.    3132.62  E(vib)   ...       0.00
freq.    3138.96  E(vib)   ...       0.00
freq.    3173.90  E(vib)   ...       0.00
freq.    3203.28  E(vib)   ...       0.00
freq.    3477.61  E(vib)   ...       0.00
freq.    3557.78  E(vib)   ...       0.00
freq.    3590.03  E(vib)   ...       0.00
freq.    3660.97  E(vib)   ...       0.00
freq.    3796.89  E(vib)   ...       0.00

------------
INNER ENERGY
------------

The inner energy is: U= E(el) + E(ZPE) + E(vib) + E(rot) + E(trans)
    E(el)   - is the total energy from the electronic structure calculation
              = E(kin-el) + E(nuc-el) + E(el-el) + E(nuc-nuc)
    E(ZPE)  - the the zero temperature vibrational energy from the frequency calculation
    E(vib)  - the the finite temperature correction to E(ZPE) due to population
              of excited vibrational states
    E(rot)  - is the rotational thermal energy
    E(trans)- is the translational thermal energy

Summary of contributions to the inner energy U:
Electronic energy                ...   -701.34970701 Eh
Zero point energy                ...      0.20928493 Eh     131.33 kcal/mol
Thermal vibrational correction   ...      0.01061641 Eh       6.66 kcal/mol
Thermal rotational correction    ...      0.00141627 Eh       0.89 kcal/mol
Thermal translational correction ...      0.00141627 Eh       0.89 kcal/mol
-----------------------------------------------------------------------
Total thermal energy                   -701.12697313 Eh

Summary of corrections to the electronic energy:
(perhaps to be used in another calculation)
Total thermal correction                  0.01344896 Eh       8.44 kcal/mol
Non-thermal (ZPE) correction              0.20928493 Eh     131.33 kcal/mol
-----------------------------------------------------------------------
Total correction                          0.22273388 Eh     139.77 kcal/mol

--------
ENTHALPY
--------

The enthalpy is H = U + kB*T
                kB is Boltzmann's constant
Total free energy                 ...   -701.12697313 Eh
Thermal Enthalpy correction       ...      0.00094421 Eh       0.59 kcal/mol
-----------------------------------------------------------------------
Total Enthalpy                    ...   -701.12602892 Eh

Note: Only C1 symmetry has been detected, increase convergence thresholds
      if your molecule has a higher symmetry. Symmetry factor of 1.0 is
      used for the rotational entropy correction.

Note: Rotational entropy computed according to Herzberg
Infrared and Raman Spectra, Chapter V,1, Van Nostrand Reinhold, 1945
Point Group:  C1, Symmetry Number:   1
Rotational constants in cm-1:     0.065611     0.010768     0.009894

Vibrational entropy computed according to the QRRHO of S. Grimme
Chem.Eur.J. 2012 18 9955

-------
ENTROPY
-------

The entropy contributions are T*S = T*(S(el)+S(vib)+S(rot)+S(trans))
     S(el)   - electronic entropy
     S(vib)  - vibrational entropy
     S(rot)  - rotational entropy
     S(trans)- translational entropy
The entropies will be listed as multiplied by the temperature to get
units of energy

Electronic entropy                ...      0.00000000 Eh      0.00 kcal/mol
Vibrational entropy               ...      0.01890868 Eh     11.87 kcal/mol
Rotational entropy                ...      0.01511502 Eh      9.48 kcal/mol
Translational entropy             ...      0.01978162 Eh     12.41 kcal/mol
-----------------------------------------------------------------------

                             ****ORCA TERMINATED NORMALLY****
TOTAL RUN TIME: 0 days 2 hours 17 minutes 56 seconds 791 msec
