                         Program Version 5.0.2 -  RELEASE  -
|  1> # GGG-H_tt_010 (old 045)
|  2> ! wB97X-D3BJ Opt Freq def2-TZVPP def2/J RIJCOSX VeryTightSCF
|  3> ! PAL8 defgrid3 VeryTightOpt
|  4>
|  5> %maxcore 4096
|  6>
|  7> %geom
|  8>   MaxIter 300
|  9>   # MaxStep 0.1
| 10>   Calc_Hess true
| 11>   Recalc_Hess 10
| 12> end
| 13>
| 14> %chelpg
| 15>   grid 0.1
| 16>   rmax 3.0
| 17> end
| 18>
| 19> * xyz 1 1
| 20>  N   -1.011870   +1.838844   +3.013512
| 21>  H   -1.648745   +2.536229   +2.626257
| 22>  C   -0.638850   +1.910663   +4.432803
| 23>  C   -0.751708   +0.549490   +5.151873
| 24>  H   +0.401613   +2.251970   +4.549620
| 25>  H   -1.307545   +2.635086   +4.925496
| 26>  O   -0.004364   +0.226580   +6.037046
| 27>  C   -0.316413   +1.036403   +2.176122
| 28>  C   -0.632141   +1.126690   +0.661446
| 29>  O   +0.544594   +0.254801   +2.615726
| 30>  N   +0.000000   +0.000000   +0.000000
| 31>  H   -0.202119   +2.061775   +0.264814
| 32>  H   -1.716821   +1.131043   +0.469257
| 33>  H   -0.465303   -0.900768   +0.111272
| 34>  C   +1.369364   +0.000000   +0.000000
| 35>  C   +2.062433   -1.348248   +0.262471
| 36>  O   +2.060034   +1.011322   +0.000000
| 37>  H   +2.860266   -1.555382   -0.465692
| 38>  H   +1.389035   -2.212890   +0.354786
| 39>  O   -1.774514   -0.242837   +4.745123
| 40>  H   -2.278835   +0.212468   +4.041952
| 41>  N   +2.684025   -1.085959   +1.616477
| 42>  H   +3.136391   -1.908187   +2.042869
| 43>  H   +3.375677   -0.322082   +1.509917
| 44>  H   +1.911394   -0.690319   +2.234250
| 45> *
| 46>
| 47>                          ****END OF INPUT****
 Total Charge           Charge          ....    1
 Multiplicity           Mult            ....    1
 Number of Electrons    NEL             ....  100
Dispersion correction           -0.044005605
FINAL SINGLE POINT ENERGY      -701.328549194051
Dispersion correction            ... done
Dispersion correction in the Hessian             ... done   (      0.5 sec)
Dispersion correction           -0.044252019
FINAL SINGLE POINT ENERGY      -701.331936492500
Dispersion correction            ... done
Dispersion correction           -0.044142056
FINAL SINGLE POINT ENERGY      -701.332073015849
FINAL SINGLE POINT ENERGY      -701.332131435885
FINAL SINGLE POINT ENERGY      -701.332160310638
FINAL SINGLE POINT ENERGY      -701.332182828611
FINAL SINGLE POINT ENERGY      -701.332188692362
FINAL SINGLE POINT ENERGY      -701.332189707566
FINAL SINGLE POINT ENERGY      -701.332189999566
FINAL SINGLE POINT ENERGY      -701.332190193145
Dispersion correction            ... done
Dispersion correction           -0.044164287
FINAL SINGLE POINT ENERGY      -701.332190306392
Dispersion correction            ... done
Dispersion correction in the Hessian             ... done   (      0.5 sec)
                    ***********************HURRAY********************

CARTESIAN COORDINATES (ANGSTROEM)
---------------------------------
  N     -0.990717    1.835000    2.991120
  H     -1.566701    2.558895    2.593614
  C     -0.611333    1.916360    4.398168
  C     -0.776246    0.591352    5.147729
  H      0.431269    2.211595    4.505595
  H     -1.239609    2.667057    4.879509
  O     -0.005119    0.240332    5.985838
  C     -0.343091    0.988440    2.173372
  C     -0.666058    1.079822    0.671395
  O      0.461146    0.169195    2.609558
  N      0.020876    0.009058   -0.017800
  H     -0.326492    2.043241    0.290533
  H     -1.739691    1.002383    0.500901
  H     -0.411889   -0.897480    0.052257
  C      1.378043    0.039862    0.053247
  C      2.098034   -1.297366    0.245636
  O      2.038182    1.052557    0.128243
  H      2.893633   -1.431020   -0.484257
  H      1.447199   -2.168842    0.269992
  O     -1.863173   -0.139766    4.833191
  H     -2.393876    0.304825    4.164954
  N      2.708230   -1.123740    1.608773
  H      3.178015   -1.960653    1.949834
  H      3.372911   -0.346994    1.567864
  H      1.952056   -0.827420    2.258132

 Multiplicity           Mult            ....    1
 Number of Electrons    NEL             ....  100
 Basis Dimension        Dim             ....  571

ORBITAL ENERGIES
----------------

  NO   OCC          E(Eh)            E(eV)
   0   2.0000     -19.372391      -527.1496
   1   2.0000     -19.357303      -526.7390
   2   2.0000     -19.353424      -526.6334
   3   2.0000     -19.306377      -525.3532
   4   2.0000     -14.706256      -400.1776
   5   2.0000     -14.605366      -397.4322
   6   2.0000     -14.603206      -397.3734
   7   2.0000     -10.551204      -287.1129
   8   2.0000     -10.547443      -287.0105
   9   2.0000     -10.518074      -286.2113
  10   2.0000     -10.516623      -286.1719
  11   2.0000     -10.479923      -285.1732
  12   2.0000     -10.457240      -284.5560
  13   2.0000      -1.364932       -37.1417
  14   2.0000      -1.353675       -36.8354
  15   2.0000      -1.342839       -36.5405
  16   2.0000      -1.306616       -35.5548
  17   2.0000      -1.266512       -34.4636
  18   2.0000      -1.232526       -33.5387
  19   2.0000      -1.224942       -33.3324
  20   2.0000      -1.067540       -29.0493
  21   2.0000      -1.033416       -28.1207
  22   2.0000      -0.985064       -26.8049
  23   2.0000      -0.898889       -24.4600
  24   2.0000      -0.887978       -24.1631
  25   2.0000      -0.880530       -23.9604
  26   2.0000      -0.865125       -23.5412
  27   2.0000      -0.850069       -23.1316
  28   2.0000      -0.821131       -22.3441
  29   2.0000      -0.803265       -21.8580
  30   2.0000      -0.777889       -21.1674
  31   2.0000      -0.773520       -21.0486
  32   2.0000      -0.756632       -20.5890
  33   2.0000      -0.741364       -20.1735
  34   2.0000      -0.721920       -19.6444
  35   2.0000      -0.714573       -19.4445
  36   2.0000      -0.706236       -19.2177
  37   2.0000      -0.696163       -18.9436
  38   2.0000      -0.686595       -18.6832
  39   2.0000      -0.665286       -18.1034
  40   2.0000      -0.655851       -17.8466
  41   2.0000      -0.646411       -17.5897
  42   2.0000      -0.628486       -17.1020
  43   2.0000      -0.608414       -16.5558
  44   2.0000      -0.558940       -15.2095
  45   2.0000      -0.546852       -14.8806
  46   2.0000      -0.543038       -14.7768
  47   2.0000      -0.537901       -14.6370
  48   2.0000      -0.527497       -14.3539
  49   2.0000      -0.493186       -13.4203
  50   0.0000      -0.088370        -2.4047
  51   0.0000      -0.065810        -1.7908
  52   0.0000      -0.063005        -1.7144
  53   0.0000      -0.041156        -1.1199
  54   0.0000      -0.032739        -0.8909

MULLIKEN ATOMIC CHARGES
-----------------------
   0 N :   -0.250364
   1 H :    0.204427
   2 C :   -0.094090
   3 C :    0.279351
   4 H :    0.138133
   5 H :    0.146511
   6 O :   -0.260475
   7 C :    0.344608
   8 C :   -0.109026
   9 O :   -0.466151
  10 N :   -0.163979
  11 H :    0.159276
  12 H :    0.153392
  13 H :    0.176290
  14 C :    0.205109
  15 C :   -0.143914
  16 O :   -0.318239
  17 H :    0.174213
  18 H :    0.148412
  19 O :   -0.217068
  20 H :    0.205119
  21 N :   -0.051032
  22 H :    0.237472
  23 H :    0.244233
  24 H :    0.257790
Sum of atomic charges:    1.0000000

LOEWDIN ATOMIC CHARGES
----------------------
   0 N :    0.328589
   1 H :   -0.011492
   2 C :   -0.031698
   3 C :   -0.451963
   4 H :    0.038469
   5 H :    0.038251
   6 O :    0.155113
   7 C :   -0.356961
   8 C :   -0.028093
   9 O :    0.099547
  10 N :    0.326105
  11 H :    0.044506
  12 H :    0.036092
  13 H :   -0.017237
  14 C :   -0.401638
  15 C :    0.042147
  16 O :    0.125276
  17 H :    0.040171
  18 H :    0.029680
  19 O :    0.379682
  20 H :   -0.115045
  21 N :    0.609944
  22 H :    0.048172
  23 H :    0.058907
  24 H :    0.013476

  Mayer bond orders larger than 0.100000
B(  0-N ,  1-H ) :   0.9575 B(  0-N ,  2-C ) :   0.8752 B(  0-N ,  7-C ) :   1.2962
B(  2-C ,  3-C ) :   0.9379 B(  2-C ,  4-H ) :   0.9855 B(  2-C ,  5-H ) :   0.9714
B(  3-C ,  6-O ) :   2.1813 B(  3-C , 19-O ) :   1.1917 B(  7-C ,  8-C ) :   0.9325
B(  7-C ,  9-O ) :   1.7479 B(  8-C , 10-N ) :   0.9378 B(  8-C , 11-H ) :   0.9717
B(  8-C , 12-H ) :   0.9852 B(  9-O , 24-H ) :   0.1058 B( 10-N , 13-H ) :   0.9713
B( 10-N , 14-C ) :   1.2255 B( 14-C , 15-C ) :   0.9496 B( 14-C , 16-O ) :   2.0298
B( 15-C , 17-H ) :   0.9832 B( 15-C , 18-H ) :   0.9960 B( 15-C , 21-N ) :   0.8841
B( 19-O , 20-H ) :   0.9745 B( 21-N , 22-H ) :   0.9361 B( 21-N , 23-H ) :   0.9198
B( 21-N , 24-H ) :   0.8770

Dispersion correction           -0.044162948
FINAL SINGLE POINT ENERGY      -701.332190367826

DIPOLE MOMENT
-------------
                                X             Y             Z
Electronic contribution:     -1.26027       0.45371       3.13537
Nuclear contribution   :      2.10811      -1.44298      -5.80805
                        -----------------------------------------
Total Dipole Moment    :      0.84784      -0.98926      -2.67268
                        -----------------------------------------
Magnitude (a.u.)       :      2.97333
Magnitude (Debye)      :      7.55762

Dispersion correction in the Hessian             ... done   (      0.5 sec)

VIBRATIONAL FREQUENCIES
-----------------------

Scaling factor for frequencies =  1.000000000  (already applied!)

   0:         0.00 cm**-1
   1:         0.00 cm**-1
   2:         0.00 cm**-1
   3:         0.00 cm**-1
   4:         0.00 cm**-1
   5:         0.00 cm**-1
   6:        39.80 cm**-1
   7:        43.04 cm**-1
   8:        58.59 cm**-1
   9:        83.05 cm**-1
  10:        91.58 cm**-1
  11:       125.41 cm**-1
  12:       162.15 cm**-1
  13:       226.42 cm**-1
  14:       260.91 cm**-1
  15:       272.95 cm**-1
  16:       288.78 cm**-1
  17:       308.47 cm**-1
  18:       356.53 cm**-1
  19:       409.93 cm**-1
  20:       433.98 cm**-1
  21:       473.01 cm**-1
  22:       519.71 cm**-1
  23:       529.98 cm**-1
  24:       584.24 cm**-1
  25:       592.16 cm**-1
  26:       607.76 cm**-1
  27:       676.31 cm**-1
  28:       712.83 cm**-1
  29:       732.53 cm**-1
  30:       770.99 cm**-1
  31:       872.20 cm**-1
  32:       877.78 cm**-1
  33:       907.25 cm**-1
  34:       911.22 cm**-1
  35:       981.48 cm**-1
  36:      1043.50 cm**-1
  37:      1055.67 cm**-1
  38:      1074.50 cm**-1
  39:      1094.53 cm**-1
  40:      1130.89 cm**-1
  41:      1148.88 cm**-1
  42:      1197.88 cm**-1
  43:      1267.03 cm**-1
  44:      1281.22 cm**-1
  45:      1289.48 cm**-1
  46:      1301.85 cm**-1
  47:      1338.69 cm**-1
  48:      1348.60 cm**-1
  49:      1374.10 cm**-1
  50:      1396.90 cm**-1
  51:      1425.84 cm**-1
  52:      1472.84 cm**-1
  53:      1480.74 cm**-1
  54:      1502.14 cm**-1
  55:      1527.99 cm**-1
  56:      1568.98 cm**-1
  57:      1581.78 cm**-1
  58:      1622.66 cm**-1
  59:      1682.83 cm**-1
  60:      1743.12 cm**-1
  61:      1818.92 cm**-1
  62:      1906.05 cm**-1
  63:      3112.84 cm**-1
  64:      3116.56 cm**-1
  65:      3131.70 cm**-1
  66:      3169.92 cm**-1
  67:      3171.61 cm**-1
  68:      3193.76 cm**-1
  69:      3202.80 cm**-1
  70:      3465.54 cm**-1
  71:      3549.40 cm**-1
  72:      3655.93 cm**-1
  73:      3661.56 cm**-1
  74:      3855.98 cm**-1

IR SPECTRUM
-----------

 Mode   freq       eps      Int      T**2         TX        TY        TZ
       cm**-1   L/(mol*cm) km/mol    a.u.
----------------------------------------------------------------------------
  6:     39.80   0.003494   17.66  0.027401  ( 0.118350 -0.014280 -0.114848)
  7:     43.04   0.000237    1.20  0.001717  ( 0.040383 -0.005699 -0.007302)
  8:     58.59   0.003873   19.57  0.020628  ( 0.053343  0.095414  0.093161)
  9:     83.05   0.003815   19.28  0.014332  (-0.095110 -0.009321  0.072109)
 10:     91.58   0.000089    0.45  0.000303  (-0.002632 -0.001973  0.017088)
 11:    125.41   0.004720   23.85  0.011744  ( 0.017693 -0.073108 -0.078013)
 12:    162.15   0.001769    8.94  0.003405  (-0.047606 -0.031154  0.012979)
 13:    226.42   0.007763   39.23  0.010700  ( 0.089096 -0.028954 -0.043853)
 14:    260.91   0.000522    2.64  0.000624  (-0.023842  0.003213  0.006752)
 15:    272.95   0.007147   36.12  0.008171  ( 0.028438 -0.053940  0.066730)
 16:    288.78   0.005909   29.86  0.006385  ( 0.063673 -0.018340  0.044661)
 17:    308.47   0.000843    4.26  0.000853  ( 0.006121 -0.008321  0.027324)
 18:    356.53   0.001977    9.99  0.001730  (-0.003034 -0.029884 -0.028778)
 19:    409.93   0.010045   50.76  0.007647  (-0.068112  0.038283  0.039266)
 20:    433.98   0.010775   54.45  0.007748  ( 0.054594 -0.027758 -0.063223)
 21:    473.01   0.018167   91.81  0.011986  ( 0.063214 -0.023077 -0.086355)
 22:    519.71   0.007266   36.72  0.004363  ( 0.048258  0.044827  0.004948)
 23:    529.98   0.005734   28.97  0.003376  (-0.047153  0.024502  0.023499)
 24:    584.24   0.003771   19.06  0.002014  (-0.034648 -0.027300  0.008261)
 25:    592.16   0.007868   39.76  0.004146  (-0.046821 -0.015231 -0.041499)
 26:    607.76   0.004172   21.08  0.002142  (-0.012362 -0.001963  0.044556)
 27:    676.31   0.012750   64.43  0.005883  ( 0.045126  0.018303  0.059258)
 28:    712.83   0.002014   10.18  0.000882  (-0.008260 -0.003514 -0.028302)
 29:    732.53   0.002186   11.05  0.000931  ( 0.016561 -0.012947  0.022124)
 30:    770.99   0.003281   16.58  0.001328  ( 0.000041  0.000590 -0.036435)
 31:    872.20   0.003012   15.22  0.001078  (-0.026724 -0.009177 -0.016707)
 32:    877.78   0.001798    9.09  0.000639  (-0.007356  0.024166 -0.001071)
 33:    907.25   0.002251   11.38  0.000774  (-0.004902  0.000083 -0.027391)
 34:    911.22   0.005603   28.32  0.001919  ( 0.041232  0.001476 -0.014717)
 35:    981.48   0.001176    5.94  0.000374  ( 0.017436 -0.003545  0.007571)
 36:   1043.50   0.002464   12.45  0.000737  (-0.018411  0.013988  0.014225)
 37:   1055.67   0.001385    7.00  0.000409  (-0.020036  0.001999  0.002017)
 38:   1074.50   0.001556    7.86  0.000452  (-0.017485 -0.010894  0.005238)
 39:   1094.53   0.001356    6.85  0.000387  ( 0.017899 -0.001588  0.007979)
 40:   1130.89   0.011407   57.65  0.003148  ( 0.032089 -0.044091 -0.013192)
 41:   1148.88   0.002568   12.98  0.000698  ( 0.020889 -0.001742 -0.016071)
 42:   1197.88   0.000647    3.27  0.000168  ( 0.010624 -0.001780 -0.007239)
 43:   1267.03   0.018930   95.67  0.004662  (-0.050287  0.001555  0.046165)
 44:   1281.22   0.004825   24.38  0.001175  ( 0.019706  0.016351 -0.022793)
 45:   1289.48   0.011968   60.48  0.002896  ( 0.050538  0.018142  0.003623)
 46:   1301.85   0.007263   36.71  0.001741  ( 0.024251 -0.032590  0.009535)
 47:   1338.69   0.003919   19.80  0.000913  ( 0.017554 -0.012927 -0.020934)
 48:   1348.60   0.033474  169.16  0.007746  (-0.078332 -0.039265  0.008253)
 49:   1374.10   0.022621  114.32  0.005137  (-0.030856 -0.058941 -0.026668)
 50:   1396.90   0.009487   47.95  0.002119  ( 0.035402  0.012816  0.026493)
 51:   1425.84   0.000248    1.25  0.000054  (-0.004198  0.004473 -0.004089)
 52:   1472.84   0.003450   17.44  0.000731  (-0.000823  0.020418 -0.017705)
 53:   1480.74   0.002891   14.61  0.000609  (-0.020921 -0.003038  0.012746)
 54:   1502.14   0.003169   16.01  0.000658  (-0.001316  0.021111  0.014521)
 55:   1527.99   0.026772  135.30  0.005468  (-0.056404  0.019037 -0.043862)
 56:   1568.98   0.039170  197.95  0.007791  (-0.085454  0.017833  0.013056)
 57:   1581.78   0.043907  221.89  0.008662  (-0.020057  0.038857  0.082159)
 58:   1622.66   0.012120   61.25  0.002331  ( 0.006719  0.047658  0.003800)
 59:   1682.83   0.021840  110.37  0.004050  (-0.045613  0.043159  0.010328)
 60:   1743.12   0.045575  230.32  0.008159  (-0.049035  0.073093  0.020304)
 61:   1818.92   0.043203  218.33  0.007412  ( 0.070537  0.045600 -0.018901)
 62:   1906.05   0.060381  305.14  0.009886  (-0.061323  0.027894 -0.073124)
 63:   3112.84   0.000681    3.44  0.000068  ( 0.001133 -0.002890 -0.007656)
 64:   3116.56   0.001430    7.23  0.000143  ( 0.008066 -0.001867 -0.008638)
 65:   3131.70   0.000422    2.13  0.000042  ( 0.000841 -0.005073 -0.003955)
 66:   3169.92   0.000154    0.78  0.000015  ( 0.000653  0.003566 -0.001424)
 67:   3171.61   0.000229    1.16  0.000023  ( 0.004104  0.002317 -0.000592)
 68:   3193.76   0.091732  463.58  0.008963  (-0.069425  0.041831  0.048923)
 69:   3202.80   0.015472   78.19  0.001508  ( 0.026998 -0.018003 -0.021320)
 70:   3465.54   0.018425   93.11  0.001659  (-0.039980 -0.007767  0.000631)
 71:   3549.40   0.023705  119.80  0.002084  (-0.013801  0.042340 -0.010050)
 72:   3655.93   0.008923   45.09  0.000762  (-0.017364 -0.021311 -0.002453)
 73:   3661.56   0.014334   72.44  0.001222  ( 0.021902 -0.027042  0.003271)
 74:   3855.98   0.010432   52.72  0.000844  ( 0.019012 -0.004999  0.021396)

--------------------------
THERMOCHEMISTRY AT 298.15K
--------------------------

Temperature         ... 298.15 K
Pressure            ... 1.00 atm
Total Mass          ... 190.18 AMU

Throughout the following assumptions are being made:
  (1) The electronic state is orbitally nondegenerate
  (2) There are no thermally accessible electronically excited states
  (3) Hindered rotations indicated by low frequency modes are not
      treated as such but are treated as vibrations and this may
      cause some error
  (4) All equations used are the standard statistical mechanics
      equations for an ideal gas
  (5) All vibrations are strictly harmonic

freq.      39.80  E(vib)   ...       0.54
freq.      43.04  E(vib)   ...       0.53
freq.      58.59  E(vib)   ...       0.51
freq.      83.05  E(vib)   ...       0.48
freq.      91.58  E(vib)   ...       0.47
freq.     125.41  E(vib)   ...       0.43
freq.     162.15  E(vib)   ...       0.39
freq.     226.42  E(vib)   ...       0.33
freq.     260.91  E(vib)   ...       0.30
freq.     272.95  E(vib)   ...       0.29
freq.     288.78  E(vib)   ...       0.27
freq.     308.47  E(vib)   ...       0.26
freq.     356.53  E(vib)   ...       0.22
freq.     409.93  E(vib)   ...       0.19
freq.     433.98  E(vib)   ...       0.17
freq.     473.01  E(vib)   ...       0.15
freq.     519.71  E(vib)   ...       0.13
freq.     529.98  E(vib)   ...       0.13
freq.     584.24  E(vib)   ...       0.11
freq.     592.16  E(vib)   ...       0.10
freq.     607.76  E(vib)   ...       0.10
freq.     676.31  E(vib)   ...       0.08
freq.     712.83  E(vib)   ...       0.07
freq.     732.53  E(vib)   ...       0.06
freq.     770.99  E(vib)   ...       0.05
freq.     872.20  E(vib)   ...       0.04
freq.     877.78  E(vib)   ...       0.04
freq.     907.25  E(vib)   ...       0.03
freq.     911.22  E(vib)   ...       0.03
freq.     981.48  E(vib)   ...       0.02
freq.    1043.50  E(vib)   ...       0.02
freq.    1055.67  E(vib)   ...       0.02
freq.    1074.50  E(vib)   ...       0.02
freq.    1094.53  E(vib)   ...       0.02
freq.    1130.89  E(vib)   ...       0.01
freq.    1148.88  E(vib)   ...       0.01
freq.    1197.88  E(vib)   ...       0.01
freq.    1267.03  E(vib)   ...       0.01
freq.    1281.22  E(vib)   ...       0.01
freq.    1289.48  E(vib)   ...       0.01
freq.    1301.85  E(vib)   ...       0.01
freq.    1338.69  E(vib)   ...       0.01
freq.    1348.60  E(vib)   ...       0.01
freq.    1374.10  E(vib)   ...       0.01
freq.    1396.90  E(vib)   ...       0.00
freq.    1425.84  E(vib)   ...       0.00
freq.    1472.84  E(vib)   ...       0.00
freq.    1480.74  E(vib)   ...       0.00
freq.    1502.14  E(vib)   ...       0.00
freq.    1527.99  E(vib)   ...       0.00
freq.    1568.98  E(vib)   ...       0.00
freq.    1581.78  E(vib)   ...       0.00
freq.    1622.66  E(vib)   ...       0.00
freq.    1682.83  E(vib)   ...       0.00
freq.    1743.12  E(vib)   ...       0.00
freq.    1818.92  E(vib)   ...       0.00
freq.    1906.05  E(vib)   ...       0.00
freq.    3112.84  E(vib)   ...       0.00
freq.    3116.56  E(vib)   ...       0.00
freq.    3131.70  E(vib)   ...       0.00
freq.    3169.92  E(vib)   ...       0.00
freq.    3171.61  E(vib)   ...       0.00
freq.    3193.76  E(vib)   ...       0.00
freq.    3202.80  E(vib)   ...       0.00
freq.    3465.54  E(vib)   ...       0.00
freq.    3549.40  E(vib)   ...       0.00
freq.    3655.93  E(vib)   ...       0.00
freq.    3661.56  E(vib)   ...       0.00
freq.    3855.98  E(vib)   ...       0.00

------------
INNER ENERGY
------------

The inner energy is: U= E(el) + E(ZPE) + E(vib) + E(rot) + E(trans)
    E(el)   - is the total energy from the electronic structure calculation
              = E(kin-el) + E(nuc-el) + E(el-el) + E(nuc-nuc)
    E(ZPE)  - the the zero temperature vibrational energy from the frequency calculation
    E(vib)  - the the finite temperature correction to E(ZPE) due to population
              of excited vibrational states
    E(rot)  - is the rotational thermal energy
    E(trans)- is the translational thermal energy

Summary of contributions to the inner energy U:
Electronic energy                ...   -701.33219037 Eh
Zero point energy                ...      0.20930944 Eh     131.34 kcal/mol
Thermal vibrational correction   ...      0.01069943 Eh       6.71 kcal/mol
Thermal rotational correction    ...      0.00141627 Eh       0.89 kcal/mol
Thermal translational correction ...      0.00141627 Eh       0.89 kcal/mol
-----------------------------------------------------------------------
Total thermal energy                   -701.10934895 Eh

Summary of corrections to the electronic energy:
(perhaps to be used in another calculation)
Total thermal correction                  0.01353197 Eh       8.49 kcal/mol
Non-thermal (ZPE) correction              0.20930944 Eh     131.34 kcal/mol
-----------------------------------------------------------------------
Total correction                          0.22284142 Eh     139.83 kcal/mol

--------
ENTHALPY
--------

The enthalpy is H = U + kB*T
                kB is Boltzmann's constant
Total free energy                 ...   -701.10934895 Eh
Thermal Enthalpy correction       ...      0.00094421 Eh       0.59 kcal/mol
-----------------------------------------------------------------------
Total Enthalpy                    ...   -701.10840474 Eh

Note: Only C1 symmetry has been detected, increase convergence thresholds
      if your molecule has a higher symmetry. Symmetry factor of 1.0 is
      used for the rotational entropy correction.

Note: Rotational entropy computed according to Herzberg
Infrared and Raman Spectra, Chapter V,1, Van Nostrand Reinhold, 1945
Point Group:  C1, Symmetry Number:   1
Rotational constants in cm-1:     0.046332     0.015203     0.013215

Vibrational entropy computed according to the QRRHO of S. Grimme
Chem.Eur.J. 2012 18 9955

-------
ENTROPY
-------

The entropy contributions are T*S = T*(S(el)+S(vib)+S(rot)+S(trans))
     S(el)   - electronic entropy
     S(vib)  - vibrational entropy
     S(rot)  - rotational entropy
     S(trans)- translational entropy
The entropies will be listed as multiplied by the temperature to get
units of energy

Electronic entropy                ...      0.00000000 Eh      0.00 kcal/mol
Vibrational entropy               ...      0.01889298 Eh     11.86 kcal/mol
Rotational entropy                ...      0.01497978 Eh      9.40 kcal/mol
Translational entropy             ...      0.01978162 Eh     12.41 kcal/mol
-----------------------------------------------------------------------

                             ****ORCA TERMINATED NORMALLY****
TOTAL RUN TIME: 0 days 2 hours 11 minutes 31 seconds 969 msec
