                         Program Version 5.0.2 -  RELEASE  -
|  1> # GGG-H_tt_023 (old 124)
|  2> ! wB97X-D3BJ Opt Freq def2-TZVPP def2/J RIJCOSX VeryTightSCF
|  3> ! PAL8 defgrid3 VeryTightOpt
|  4>
|  5> %maxcore 4096
|  6>
|  7> %geom
|  8>   MaxIter 300
|  9>   # MaxStep 0.1
| 10>   Calc_Hess true
| 11>   Recalc_Hess 10
| 12> end
| 13>
| 14> %chelpg
| 15>   grid 0.1
| 16>   rmax 3.0
| 17> end
| 18>
| 19> * xyz 1 1
| 20>  N   -0.335809   +0.902660   +2.654582
| 21>  H   -0.665394   -0.039302   +2.447372
| 22>  C   +0.536549   +1.050760   +3.824455
| 23>  C   +1.946214   +0.779552   +3.291729
| 24>  H   +0.432288   +2.065600   +4.237958
| 25>  H   +0.268138   +0.303725   +4.582955
| 26>  O   +2.392631   -0.369144   +3.201588
| 27>  C   -0.224997   +1.804569   +1.623458
| 28>  C   -0.697183   +1.274517   +0.250022
| 29>  O   +0.314371   +2.898035   +1.775911
| 30>  N   +0.000000   +0.000000   +0.000000
| 31>  H   -0.426080   +2.027464   -0.504040
| 32>  H   -1.782526   +1.092191   +0.221529
| 33>  H   -0.525828   -0.871162   -0.061568
| 34>  C   +1.356709   +0.000000   +0.000000
| 35>  C   +2.117971   -1.337724   +0.112102
| 36>  O   +2.023344   +1.035526   +0.000000
| 37>  H   +2.350655   -1.746784   -0.884810
| 38>  H   +1.591973   -2.096788   +0.709673
| 39>  O   +2.610660   +1.804186   +2.777421
| 40>  H   +1.992250   +2.572675   +2.637116
| 41>  N   +3.390913   -0.956562   +0.803010
| 42>  H   +4.153075   -1.636887   +0.682947
| 43>  H   +3.648427   -0.021234   +0.412240
| 44>  H   +3.191235   -0.770793   +1.851165
| 45> *
| 46>
| 47>                          ****END OF INPUT****
 Total Charge           Charge          ....    1
 Multiplicity           Mult            ....    1
 Number of Electrons    NEL             ....  100
Dispersion correction           -0.047677027
FINAL SINGLE POINT ENERGY      -701.339843565872
Dispersion correction            ... done
Dispersion correction in the Hessian             ... done   (      0.7 sec)
Dispersion correction           -0.047626898
FINAL SINGLE POINT ENERGY      -701.343918503852
Dispersion correction            ... done
Dispersion correction           -0.047525063
FINAL SINGLE POINT ENERGY      -701.344142101545
FINAL SINGLE POINT ENERGY      -701.344307608121
FINAL SINGLE POINT ENERGY      -701.344359941736
FINAL SINGLE POINT ENERGY      -701.344394090338
FINAL SINGLE POINT ENERGY      -701.344399995433
FINAL SINGLE POINT ENERGY      -701.344403488701
FINAL SINGLE POINT ENERGY      -701.344405149738
FINAL SINGLE POINT ENERGY      -701.344405644556
Dispersion correction            ... done
Dispersion correction           -0.047198054
FINAL SINGLE POINT ENERGY      -701.344405752294
Dispersion correction            ... done
Dispersion correction in the Hessian             ... done   (      0.7 sec)
                    ***********************HURRAY********************

CARTESIAN COORDINATES (ANGSTROEM)
---------------------------------
  N     -0.351761    0.897638    2.643121
  H     -0.579936   -0.058984    2.434958
  C      0.515359    1.111609    3.789011
  C      1.936016    0.837469    3.306094
  H      0.390159    2.126410    4.161540
  H      0.267486    0.401928    4.575147
  O      2.320220   -0.303660    3.108226
  C     -0.289790    1.790474    1.603652
  C     -0.712621    1.223131    0.240626
  O      0.126076    2.917165    1.746600
  N      0.011967   -0.024307   -0.008190
  H     -0.470760    1.971558   -0.510880
  H     -1.781982    1.014916    0.215347
  H     -0.485708   -0.895200   -0.079388
  C      1.357260   -0.003546    0.028904
  C      2.111770   -1.336514    0.077354
  O      2.009337    1.022429    0.084927
  H      2.307260   -1.710222   -0.927923
  H      1.597227   -2.097200    0.661414
  O      2.709516    1.860561    3.003319
  H      2.209926    2.690203    3.003334
  N      3.403764   -1.007900    0.744427
  H      4.097866   -1.746134    0.656874
  H      3.746076   -0.131930    0.332811
  H      3.214859   -0.784815    1.755509

 Multiplicity           Mult            ....    1
 Number of Electrons    NEL             ....  100
 Basis Dimension        Dim             ....  571

ORBITAL ENERGIES
----------------

  NO   OCC          E(Eh)            E(eV)
   0   2.0000     -19.410483      -528.1861
   1   2.0000     -19.361321      -526.8483
   2   2.0000     -19.354466      -526.6618
   3   2.0000     -19.323388      -525.8161
   4   2.0000     -14.688061      -399.6825
   5   2.0000     -14.610439      -397.5703
   6   2.0000     -14.582583      -396.8122
   7   2.0000     -10.565211      -287.4940
   8   2.0000     -10.553059      -287.1633
   9   2.0000     -10.518436      -286.2212
  10   2.0000     -10.514775      -286.1216
  11   2.0000     -10.464756      -284.7605
  12   2.0000     -10.464406      -284.7510
  13   2.0000      -1.398655       -38.0593
  14   2.0000      -1.361063       -37.0364
  15   2.0000      -1.321369       -35.9563
  16   2.0000      -1.310443       -35.6590
  17   2.0000      -1.291972       -35.1563
  18   2.0000      -1.233216       -33.5575
  19   2.0000      -1.205154       -32.7939
  20   2.0000      -1.064629       -28.9700
  21   2.0000      -1.025217       -27.8976
  22   2.0000      -0.986245       -26.8371
  23   2.0000      -0.898759       -24.4565
  24   2.0000      -0.887991       -24.1635
  25   2.0000      -0.884412       -24.0661
  26   2.0000      -0.865071       -23.5398
  27   2.0000      -0.851957       -23.1829
  28   2.0000      -0.813805       -22.1448
  29   2.0000      -0.810064       -22.0430
  30   2.0000      -0.777801       -21.1650
  31   2.0000      -0.772245       -21.0139
  32   2.0000      -0.754851       -20.5405
  33   2.0000      -0.738552       -20.0970
  34   2.0000      -0.735788       -20.0218
  35   2.0000      -0.724319       -19.7097
  36   2.0000      -0.703122       -19.1329
  37   2.0000      -0.690204       -18.7814
  38   2.0000      -0.678239       -18.4558
  39   2.0000      -0.670100       -18.2343
  40   2.0000      -0.663947       -18.0669
  41   2.0000      -0.648990       -17.6599
  42   2.0000      -0.635962       -17.3054
  43   2.0000      -0.630052       -17.1446
  44   2.0000      -0.584340       -15.9007
  45   2.0000      -0.562346       -15.3022
  46   2.0000      -0.548903       -14.9364
  47   2.0000      -0.545526       -14.8445
  48   2.0000      -0.505590       -13.7578
  49   2.0000      -0.502202       -13.6656
  50   0.0000      -0.078437        -2.1344
  51   0.0000      -0.069077        -1.8797
  52   0.0000      -0.060489        -1.6460
  53   0.0000      -0.046154        -1.2559
  54   0.0000      -0.037232        -1.0131

MULLIKEN ATOMIC CHARGES
-----------------------
   0 N :   -0.183732
   1 H :    0.168271
   2 C :   -0.126463
   3 C :    0.354074
   4 H :    0.144915
   5 H :    0.146547
   6 O :   -0.396432
   7 C :    0.248880
   8 C :   -0.076560
   9 O :   -0.330616
  10 N :   -0.228906
  11 H :    0.151949
  12 H :    0.151278
  13 H :    0.195470
  14 C :    0.222965
  15 C :   -0.152487
  16 O :   -0.338283
  17 H :    0.178301
  18 H :    0.161464
  19 O :   -0.194616
  20 H :    0.260873
  21 N :   -0.061572
  22 H :    0.228977
  23 H :    0.236693
  24 H :    0.239011
Sum of atomic charges:    1.0000000

LOEWDIN ATOMIC CHARGES
----------------------
   0 N :    0.317503
   1 H :   -0.031560
   2 C :   -0.034259
   3 C :   -0.409449
   4 H :    0.034431
   5 H :    0.040625
   6 O :    0.126868
   7 C :   -0.388172
   8 C :   -0.009285
   9 O :    0.119328
  10 N :    0.333168
  11 H :    0.043686
  12 H :    0.035489
  13 H :   -0.020721
  14 C :   -0.404955
  15 C :    0.030511
  16 O :    0.127557
  17 H :    0.038768
  18 H :    0.033090
  19 O :    0.421708
  20 H :   -0.070197
  21 N :    0.602834
  22 H :    0.041140
  23 H :    0.042783
  24 H :   -0.020892

  Mayer bond orders larger than 0.100000
B(  0-N ,  1-H ) :   0.9708 B(  0-N ,  2-C ) :   0.9157 B(  0-N ,  7-C ) :   1.1786
B(  2-C ,  3-C ) :   0.9234 B(  2-C ,  4-H ) :   1.0008 B(  2-C ,  5-H ) :   0.9853
B(  3-C ,  6-O ) :   1.8529 B(  3-C , 19-O ) :   1.3136 B(  6-O , 24-H ) :   0.1828
B(  7-C ,  8-C ) :   0.9158 B(  7-C ,  9-O ) :   2.0466 B(  8-C , 10-N ) :   0.8844
B(  8-C , 11-H ) :   0.9858 B(  8-C , 12-H ) :   0.9830 B( 10-N , 13-H ) :   0.9611
B( 10-N , 14-C ) :   1.2889 B( 14-C , 15-C ) :   0.9255 B( 14-C , 16-O ) :   1.9704
B( 15-C , 17-H ) :   0.9755 B( 15-C , 18-H ) :   0.9900 B( 15-C , 21-N ) :   0.8998
B( 19-O , 20-H ) :   0.9351 B( 21-N , 22-H ) :   0.9395 B( 21-N , 23-H ) :   0.9068
B( 21-N , 24-H ) :   0.8449

Dispersion correction           -0.047194678
FINAL SINGLE POINT ENERGY      -701.344405934309

DIPOLE MOMENT
-------------
                                X             Y             Z
Electronic contribution:      0.63560       3.75777       1.47873
Nuclear contribution   :     -0.04339      -6.95554      -2.43874
                        -----------------------------------------
Total Dipole Moment    :      0.59222      -3.19777      -0.96001
                        -----------------------------------------
Magnitude (a.u.)       :      3.39088
Magnitude (Debye)      :      8.61893

Dispersion correction in the Hessian             ... done   (      0.8 sec)

VIBRATIONAL FREQUENCIES
-----------------------

Scaling factor for frequencies =  1.000000000  (already applied!)

   0:         0.00 cm**-1
   1:         0.00 cm**-1
   2:         0.00 cm**-1
   3:         0.00 cm**-1
   4:         0.00 cm**-1
   5:         0.00 cm**-1
   6:        46.14 cm**-1
   7:        65.84 cm**-1
   8:        83.66 cm**-1
   9:       109.41 cm**-1
  10:       123.67 cm**-1
  11:       130.63 cm**-1
  12:       194.58 cm**-1
  13:       227.74 cm**-1
  14:       245.62 cm**-1
  15:       296.80 cm**-1
  16:       317.31 cm**-1
  17:       329.43 cm**-1
  18:       386.56 cm**-1
  19:       416.83 cm**-1
  20:       437.74 cm**-1
  21:       452.77 cm**-1
  22:       479.47 cm**-1
  23:       526.72 cm**-1
  24:       571.76 cm**-1
  25:       625.94 cm**-1
  26:       633.40 cm**-1
  27:       639.55 cm**-1
  28:       699.81 cm**-1
  29:       742.31 cm**-1
  30:       795.99 cm**-1
  31:       868.11 cm**-1
  32:       883.68 cm**-1
  33:       927.42 cm**-1
  34:       938.94 cm**-1
  35:      1009.43 cm**-1
  36:      1034.37 cm**-1
  37:      1051.16 cm**-1
  38:      1076.85 cm**-1
  39:      1121.23 cm**-1
  40:      1134.55 cm**-1
  41:      1147.94 cm**-1
  42:      1228.67 cm**-1
  43:      1257.14 cm**-1
  44:      1270.07 cm**-1
  45:      1289.89 cm**-1
  46:      1319.96 cm**-1
  47:      1342.29 cm**-1
  48:      1363.64 cm**-1
  49:      1366.14 cm**-1
  50:      1419.03 cm**-1
  51:      1435.19 cm**-1
  52:      1479.27 cm**-1
  53:      1487.95 cm**-1
  54:      1493.00 cm**-1
  55:      1539.88 cm**-1
  56:      1548.03 cm**-1
  57:      1573.01 cm**-1
  58:      1618.96 cm**-1
  59:      1693.17 cm**-1
  60:      1785.16 cm**-1
  61:      1790.40 cm**-1
  62:      1822.41 cm**-1
  63:      2951.54 cm**-1
  64:      3120.17 cm**-1
  65:      3124.08 cm**-1
  66:      3131.39 cm**-1
  67:      3184.98 cm**-1
  68:      3188.10 cm**-1
  69:      3193.74 cm**-1
  70:      3415.18 cm**-1
  71:      3560.09 cm**-1
  72:      3676.60 cm**-1
  73:      3679.23 cm**-1
  74:      3773.81 cm**-1

IR SPECTRUM
-----------

 Mode   freq       eps      Int      T**2         TX        TY        TZ
       cm**-1   L/(mol*cm) km/mol    a.u.
----------------------------------------------------------------------------
  6:     46.14   0.003099   15.66  0.020960  (-0.144244  0.000453 -0.012374)
  7:     65.84   0.003148   15.91  0.014919  ( 0.048419  0.073651  0.084561)
  8:     83.66   0.001675    8.47  0.006249  (-0.043426 -0.007973  0.065572)
  9:    109.41   0.001579    7.98  0.004505  (-0.054574  0.037295  0.011658)
 10:    123.67   0.002243   11.33  0.005659  (-0.042798 -0.009728 -0.061096)
 11:    130.63   0.000181    0.92  0.000433  ( 0.001945 -0.019166  0.007872)
 12:    194.58   0.005264   26.60  0.008443  ( 0.013063 -0.019258 -0.088890)
 13:    227.74   0.002625   13.27  0.003597  (-0.029536 -0.051370 -0.009255)
 14:    245.62   0.006609   33.40  0.008397  ( 0.003731 -0.002147  0.091535)
 15:    296.80   0.003040   15.36  0.003196  ( 0.038810 -0.021244  0.035192)
 16:    317.31   0.008707   44.00  0.008563  ( 0.052936 -0.035577 -0.067045)
 17:    329.43   0.002191   11.07  0.002076  (-0.017300 -0.004093 -0.041951)
 18:    386.56   0.006647   33.59  0.005366  ( 0.031644 -0.028175  0.059754)
 19:    416.83   0.006528   32.99  0.004888  (-0.054188  0.044015 -0.003736)
 20:    437.74   0.021848  110.41  0.015575  (-0.036748  0.024345  0.116758)
 21:    452.77   0.003411   17.24  0.002351  (-0.041799  0.018040  0.016675)
 22:    479.47   0.000255    1.29  0.000166  ( 0.008578  0.006151 -0.007402)
 23:    526.72   0.018930   95.66  0.011215  ( 0.100573  0.033035 -0.002994)
 24:    571.76   0.022181  112.09  0.012106  ( 0.007376  0.049913  0.097777)
 25:    625.94   0.006747   34.10  0.003364  ( 0.013276  0.007375  0.055973)
 26:    633.40   0.006434   32.52  0.003170  (-0.053467 -0.015174  0.009002)
 27:    639.55   0.000856    4.33  0.000418  ( 0.007160 -0.011297  0.015460)
 28:    699.81   0.000235    1.19  0.000105  (-0.004660  0.000142 -0.009103)
 29:    742.31   0.001759    8.89  0.000739  (-0.006408 -0.001875  0.026358)
 30:    795.99   0.001509    7.63  0.000592  ( 0.010399 -0.016384  0.014664)
 31:    868.11   0.001135    5.74  0.000408  (-0.009392  0.013901 -0.011257)
 32:    883.68   0.001015    5.13  0.000358  (-0.014887  0.011108  0.003671)
 33:    927.42   0.002792   14.11  0.000940  (-0.023727 -0.013292  0.014140)
 34:    938.94   0.005614   28.37  0.001866  (-0.000134 -0.010861 -0.041807)
 35:   1009.43   0.000984    4.97  0.000304  (-0.016071  0.006018 -0.003118)
 36:   1034.37   0.002635   13.32  0.000795  (-0.012878  0.021563  0.012814)
 37:   1051.16   0.000478    2.42  0.000142  ( 0.008649 -0.002640 -0.007752)
 38:   1076.85   0.002469   12.48  0.000716  ( 0.004716 -0.026191 -0.002721)
 39:   1121.23   0.001974    9.97  0.000549  ( 0.018324 -0.005247  0.013640)
 40:   1134.55   0.001057    5.34  0.000291  ( 0.009368  0.008916 -0.011108)
 41:   1147.94   0.005603   28.32  0.001523  (-0.005192  0.030829  0.023362)
 42:   1228.67   0.001769    8.94  0.000449  (-0.000990  0.015823 -0.014069)
 43:   1257.14   0.006710   33.91  0.001666  ( 0.015266  0.010793  0.036277)
 44:   1270.07   0.008095   40.91  0.001989  ( 0.022755 -0.032164 -0.020899)
 45:   1289.89   0.019003   96.03  0.004597  ( 0.038339  0.055074 -0.009716)
 46:   1319.96   0.011184   56.52  0.002644  ( 0.028363 -0.024528  0.035185)
 47:   1342.29   0.001711    8.65  0.000398  ( 0.000841 -0.004245  0.019471)
 48:   1363.64   0.010096   51.02  0.002310  (-0.016208 -0.040974  0.019204)
 49:   1366.14   0.004684   23.67  0.001070  (-0.030940 -0.010535 -0.001319)
 50:   1419.03   0.002008   10.15  0.000442  (-0.009298 -0.018846 -0.000067)
 51:   1435.19   0.027140  137.15  0.005901  ( 0.052620  0.055652  0.005926)
 52:   1479.27   0.004151   20.98  0.000876  (-0.006466 -0.015585  0.024312)
 53:   1487.95   0.002206   11.15  0.000463  (-0.008224  0.016869  0.010514)
 54:   1493.00   0.003241   16.38  0.000677  ( 0.009754  0.024035  0.002149)
 55:   1539.88   0.049499  250.15  0.010031  (-0.099769 -0.003483  0.008084)
 56:   1548.03   0.033597  169.79  0.006773  ( 0.002262 -0.038775  0.072555)
 57:   1573.01   0.031130  157.32  0.006176  ( 0.072315 -0.030246  0.005606)
 58:   1618.96   0.009710   49.07  0.001872  (-0.021956  0.037264 -0.000929)
 59:   1693.17   0.023339  117.95  0.004302  (-0.037322  0.048972  0.022594)
 60:   1785.16   0.013985   70.67  0.002445  (-0.040058 -0.026765 -0.011124)
 61:   1790.40   0.052265  264.13  0.009110  ( 0.053931 -0.073690 -0.027765)
 62:   1822.41   0.073130  369.57  0.012523  (-0.030563 -0.107643 -0.001229)
 63:   2951.54   0.179148  905.34  0.018941  ( 0.038619 -0.054878 -0.120159)
 64:   3120.17   0.000838    4.23  0.000084  (-0.006884  0.003243  0.005088)
 65:   3124.08   0.000396    2.00  0.000040  ( 0.005512 -0.001764 -0.002457)
 66:   3131.39   0.000711    3.59  0.000071  ( 0.003850  0.000157  0.007485)
 67:   3184.98   0.000131    0.66  0.000013  (-0.000433 -0.001548 -0.003195)
 68:   3188.10   0.000056    0.28  0.000006  ( 0.002261  0.000378  0.000506)
 69:   3193.74   0.000037    0.19  0.000004  (-0.000253 -0.000270  0.001859)
 70:   3415.18   0.014085   71.18  0.001287  (-0.014464 -0.026448  0.019451)
 71:   3560.09   0.024890  125.79  0.002182  (-0.028975  0.036453  0.003665)
 72:   3676.60   0.012057   60.93  0.001023  (-0.023909 -0.020555 -0.005403)
 73:   3679.23   0.007471   37.76  0.000634  ( 0.009351  0.023372  0.000146)
 74:   3773.81   0.026608  134.47  0.002200  (-0.013359  0.044728 -0.004605)

--------------------------
THERMOCHEMISTRY AT 298.15K
--------------------------

Temperature         ... 298.15 K
Pressure            ... 1.00 atm
Total Mass          ... 190.18 AMU

Throughout the following assumptions are being made:
  (1) The electronic state is orbitally nondegenerate
  (2) There are no thermally accessible electronically excited states
  (3) Hindered rotations indicated by low frequency modes are not
      treated as such but are treated as vibrations and this may
      cause some error
  (4) All equations used are the standard statistical mechanics
      equations for an ideal gas
  (5) All vibrations are strictly harmonic

freq.      46.14  E(vib)   ...       0.53
freq.      65.84  E(vib)   ...       0.50
freq.      83.66  E(vib)   ...       0.48
freq.     109.41  E(vib)   ...       0.45
freq.     123.67  E(vib)   ...       0.43
freq.     130.63  E(vib)   ...       0.43
freq.     194.58  E(vib)   ...       0.36
freq.     227.74  E(vib)   ...       0.33
freq.     245.62  E(vib)   ...       0.31
freq.     296.80  E(vib)   ...       0.27
freq.     317.31  E(vib)   ...       0.25
freq.     329.43  E(vib)   ...       0.24
freq.     386.56  E(vib)   ...       0.20
freq.     416.83  E(vib)   ...       0.18
freq.     437.74  E(vib)   ...       0.17
freq.     452.77  E(vib)   ...       0.16
freq.     479.47  E(vib)   ...       0.15
freq.     526.72  E(vib)   ...       0.13
freq.     571.76  E(vib)   ...       0.11
freq.     625.94  E(vib)   ...       0.09
freq.     633.40  E(vib)   ...       0.09
freq.     639.55  E(vib)   ...       0.09
freq.     699.81  E(vib)   ...       0.07
freq.     742.31  E(vib)   ...       0.06
freq.     795.99  E(vib)   ...       0.05
freq.     868.11  E(vib)   ...       0.04
freq.     883.68  E(vib)   ...       0.04
freq.     927.42  E(vib)   ...       0.03
freq.     938.94  E(vib)   ...       0.03
freq.    1009.43  E(vib)   ...       0.02
freq.    1034.37  E(vib)   ...       0.02
freq.    1051.16  E(vib)   ...       0.02
freq.    1076.85  E(vib)   ...       0.02
freq.    1121.23  E(vib)   ...       0.01
freq.    1134.55  E(vib)   ...       0.01
freq.    1147.94  E(vib)   ...       0.01
freq.    1228.67  E(vib)   ...       0.01
freq.    1257.14  E(vib)   ...       0.01
freq.    1270.07  E(vib)   ...       0.01
freq.    1289.89  E(vib)   ...       0.01
freq.    1319.96  E(vib)   ...       0.01
freq.    1342.29  E(vib)   ...       0.01
freq.    1363.64  E(vib)   ...       0.01
freq.    1366.14  E(vib)   ...       0.01
freq.    1419.03  E(vib)   ...       0.00
freq.    1435.19  E(vib)   ...       0.00
freq.    1479.27  E(vib)   ...       0.00
freq.    1487.95  E(vib)   ...       0.00
freq.    1493.00  E(vib)   ...       0.00
freq.    1539.88  E(vib)   ...       0.00
freq.    1548.03  E(vib)   ...       0.00
freq.    1573.01  E(vib)   ...       0.00
freq.    1618.96  E(vib)   ...       0.00
freq.    1693.17  E(vib)   ...       0.00
freq.    1785.16  E(vib)   ...       0.00
freq.    1790.40  E(vib)   ...       0.00
freq.    1822.41  E(vib)   ...       0.00
freq.    2951.54  E(vib)   ...       0.00
freq.    3120.17  E(vib)   ...       0.00
freq.    3124.08  E(vib)   ...       0.00
freq.    3131.39  E(vib)   ...       0.00
freq.    3184.98  E(vib)   ...       0.00
freq.    3188.10  E(vib)   ...       0.00
freq.    3193.74  E(vib)   ...       0.00
freq.    3415.18  E(vib)   ...       0.00
freq.    3560.09  E(vib)   ...       0.00
freq.    3676.60  E(vib)   ...       0.00
freq.    3679.23  E(vib)   ...       0.00
freq.    3773.81  E(vib)   ...       0.00

------------
INNER ENERGY
------------

The inner energy is: U= E(el) + E(ZPE) + E(vib) + E(rot) + E(trans)
    E(el)   - is the total energy from the electronic structure calculation
              = E(kin-el) + E(nuc-el) + E(el-el) + E(nuc-nuc)
    E(ZPE)  - the the zero temperature vibrational energy from the frequency calculation
    E(vib)  - the the finite temperature correction to E(ZPE) due to population
              of excited vibrational states
    E(rot)  - is the rotational thermal energy
    E(trans)- is the translational thermal energy

Summary of contributions to the inner energy U:
Electronic energy                ...   -701.34440593 Eh
Zero point energy                ...      0.20935344 Eh     131.37 kcal/mol
Thermal vibrational correction   ...      0.01031871 Eh       6.48 kcal/mol
Thermal rotational correction    ...      0.00141627 Eh       0.89 kcal/mol
Thermal translational correction ...      0.00141627 Eh       0.89 kcal/mol
-----------------------------------------------------------------------
Total thermal energy                   -701.12190123 Eh

Summary of corrections to the electronic energy:
(perhaps to be used in another calculation)
Total thermal correction                  0.01315126 Eh       8.25 kcal/mol
Non-thermal (ZPE) correction              0.20935344 Eh     131.37 kcal/mol
-----------------------------------------------------------------------
Total correction                          0.22250470 Eh     139.62 kcal/mol

--------
ENTHALPY
--------

The enthalpy is H = U + kB*T
                kB is Boltzmann's constant
Total free energy                 ...   -701.12190123 Eh
Thermal Enthalpy correction       ...      0.00094421 Eh       0.59 kcal/mol
-----------------------------------------------------------------------
Total Enthalpy                    ...   -701.12095703 Eh

Note: Only C1 symmetry has been detected, increase convergence thresholds
      if your molecule has a higher symmetry. Symmetry factor of 1.0 is
      used for the rotational entropy correction.

Note: Rotational entropy computed according to Herzberg
Infrared and Raman Spectra, Chapter V,1, Van Nostrand Reinhold, 1945
Point Group:  C1, Symmetry Number:   1
Rotational constants in cm-1:     0.033279     0.027647     0.019385

Vibrational entropy computed according to the QRRHO of S. Grimme
Chem.Eur.J. 2012 18 9955

-------
ENTROPY
-------

The entropy contributions are T*S = T*(S(el)+S(vib)+S(rot)+S(trans))
     S(el)   - electronic entropy
     S(vib)  - vibrational entropy
     S(rot)  - rotational entropy
     S(trans)- translational entropy
The entropies will be listed as multiplied by the temperature to get
units of energy

Electronic entropy                ...      0.00000000 Eh      0.00 kcal/mol
Vibrational entropy               ...      0.01796701 Eh     11.27 kcal/mol
Rotational entropy                ...      0.01467279 Eh      9.21 kcal/mol
Translational entropy             ...      0.01978162 Eh     12.41 kcal/mol
-----------------------------------------------------------------------

                             ****ORCA TERMINATED NORMALLY****
TOTAL RUN TIME: 0 days 2 hours 41 minutes 7 seconds 530 msec
