                         Program Version 5.0.2 -  RELEASE  -
|  1> # GGG-H_tt_022 (old 123)
|  2> ! wB97X-D3BJ Opt Freq def2-TZVPP def2/J RIJCOSX VeryTightSCF
|  3> ! PAL8 defgrid3 VeryTightOpt
|  4>
|  5> %maxcore 4096
|  6>
|  7> %geom
|  8>   MaxIter 300
|  9>   # MaxStep 0.1
| 10>   Calc_Hess true
| 11>   Recalc_Hess 10
| 12> end
| 13>
| 14> %chelpg
| 15>   grid 0.1
| 16>   rmax 3.0
| 17> end
| 18>
| 19> * xyz 1 1
| 20>  N   -1.058908   +1.901482   +2.941996
| 21>  H   -1.730049   +2.554976   +2.531984
| 22>  C   -0.883668   +1.968251   +4.391598
| 23>  C   -1.751628   +3.036338   +5.044706
| 24>  H   -1.129471   +0.996983   +4.856417
| 25>  H   +0.169668   +2.183547   +4.644091
| 26>  O   -1.749415   +3.258902   +6.229024
| 27>  C   -0.376707   +1.045454   +2.172175
| 28>  C   -0.639978   +1.131025   +0.644858
| 29>  O   +0.437728   +0.229149   +2.657035
| 30>  N   +0.000000   +0.000000   +0.000000
| 31>  H   -0.193675   +2.061167   +0.256117
| 32>  H   -1.719202   +1.141311   +0.424497
| 33>  H   -0.467235   -0.899918   +0.108233
| 34>  C   +1.368622   +0.000000   +0.000000
| 35>  C   +2.048156   -1.348445   +0.288753
| 36>  O   +2.061123   +1.009981   +0.000000
| 37>  H   +2.903426   -1.536130   -0.376247
| 38>  H   +1.375126   -2.218336   +0.309282
| 39>  O   -2.516332   +3.694495   +4.133299
| 40>  H   -3.045825   +4.365619   +4.616402
| 41>  N   +2.548976   -1.104966   +1.695696
| 42>  H   +3.276972   -0.370595   +1.659623
| 43>  H   +1.723077   -0.670809   +2.240835
| 44>  H   +2.929877   -1.942385   +2.159456
| 45> *
| 46>
| 47>                          ****END OF INPUT****
 Total Charge           Charge          ....    1
 Multiplicity           Mult            ....    1
 Number of Electrons    NEL             ....  100
Dispersion correction           -0.042508734
FINAL SINGLE POINT ENERGY      -701.339993719035
Dispersion correction            ... done
Dispersion correction in the Hessian             ... done   (      0.6 sec)
Dispersion correction           -0.042740116
FINAL SINGLE POINT ENERGY      -701.343422691780
Dispersion correction            ... done
Dispersion correction           -0.042737578
FINAL SINGLE POINT ENERGY      -701.343494550087
FINAL SINGLE POINT ENERGY      -701.343533147227
FINAL SINGLE POINT ENERGY      -701.343552969523
FINAL SINGLE POINT ENERGY      -701.343567386919
FINAL SINGLE POINT ENERGY      -701.343571926520
FINAL SINGLE POINT ENERGY      -701.343573929618
FINAL SINGLE POINT ENERGY      -701.343574958157
FINAL SINGLE POINT ENERGY      -701.343575258698
FINAL SINGLE POINT ENERGY      -701.343575241878
Dispersion correction           -0.042785810
FINAL SINGLE POINT ENERGY      -701.343575538184
Dispersion correction            ... done
Dispersion correction           -0.042786261
FINAL SINGLE POINT ENERGY      -701.343575523962
Dispersion correction            ... done
                    ***********************HURRAY********************

CARTESIAN COORDINATES (ANGSTROEM)
---------------------------------
  N     -1.056916    1.907877    2.917357
  H     -1.671919    2.583195    2.491100
  C     -0.882904    1.969190    4.359605
  C     -1.714620    3.054808    5.013253
  H     -1.159417    1.019280    4.820010
  H      0.161514    2.158661    4.613655
  O     -1.705154    3.256202    6.190171
  C     -0.422726    1.009113    2.171747
  C     -0.697659    1.078655    0.657520
  O      0.338083    0.164172    2.657944
  N      0.006340    0.004309   -0.006597
  H     -0.353182    2.038369    0.273259
  H     -1.766694    0.994236    0.463521
  H     -0.423777   -0.903594    0.056769
  C      1.361563    0.045250    0.068509
  C      2.078167   -1.287729    0.291582
  O      2.015467    1.061666    0.148230
  H      2.937470   -1.397196   -0.365909
  H      1.438142   -2.166182    0.240564
  O     -2.452462    3.755764    4.127803
  H     -2.948158    4.425621    4.618586
  N      2.554761   -1.129419    1.709789
  H      3.257783   -0.387973    1.735821
  H      1.740654   -0.783326    2.274671
  H      2.946303   -1.983852    2.100871

 Multiplicity           Mult            ....    1
 Number of Electrons    NEL             ....  100
 Basis Dimension        Dim             ....  571

ORBITAL ENERGIES
----------------

  NO   OCC          E(Eh)            E(eV)
   0   2.0000     -19.384472      -527.4783
   1   2.0000     -19.346946      -526.4572
   2   2.0000     -19.345746      -526.4245
   3   2.0000     -19.317303      -525.6505
   4   2.0000     -14.698561      -399.9682
   5   2.0000     -14.596884      -397.2014
   6   2.0000     -14.589774      -397.0079
   7   2.0000     -10.544385      -286.9273
   8   2.0000     -10.535700      -286.6910
   9   2.0000     -10.528389      -286.4920
  10   2.0000     -10.510970      -286.0180
  11   2.0000     -10.469787      -284.8974
  12   2.0000     -10.452253      -284.4203
  13   2.0000      -1.365903       -37.1681
  14   2.0000      -1.355552       -36.8864
  15   2.0000      -1.332502       -36.2592
  16   2.0000      -1.299662       -35.3656
  17   2.0000      -1.272521       -34.6271
  18   2.0000      -1.225594       -33.3501
  19   2.0000      -1.215015       -33.0622
  20   2.0000      -1.061272       -28.8787
  21   2.0000      -1.032276       -28.0897
  22   2.0000      -0.983319       -26.7575
  23   2.0000      -0.894793       -24.3486
  24   2.0000      -0.878963       -23.9178
  25   2.0000      -0.873892       -23.7798
  26   2.0000      -0.869673       -23.6650
  27   2.0000      -0.849601       -23.1188
  28   2.0000      -0.808939       -22.0123
  29   2.0000      -0.793582       -21.5945
  30   2.0000      -0.769510       -20.9394
  31   2.0000      -0.754884       -20.5414
  32   2.0000      -0.743332       -20.2271
  33   2.0000      -0.737947       -20.0806
  34   2.0000      -0.721112       -19.6225
  35   2.0000      -0.708740       -19.2858
  36   2.0000      -0.704414       -19.1681
  37   2.0000      -0.697572       -18.9819
  38   2.0000      -0.682949       -18.5840
  39   2.0000      -0.669891       -18.2287
  40   2.0000      -0.654846       -17.8193
  41   2.0000      -0.642893       -17.4940
  42   2.0000      -0.630370       -17.1533
  43   2.0000      -0.621267       -16.9055
  44   2.0000      -0.554694       -15.0940
  45   2.0000      -0.548826       -14.9343
  46   2.0000      -0.538094       -14.6423
  47   2.0000      -0.524136       -14.2625
  48   2.0000      -0.515124       -14.0172
  49   2.0000      -0.505997       -13.7689
  50   0.0000      -0.083704        -2.2777
  51   0.0000      -0.060990        -1.6596
  52   0.0000      -0.048372        -1.3163
  53   0.0000      -0.029476        -0.8021
  54   0.0000      -0.017566        -0.4780

MULLIKEN ATOMIC CHARGES
-----------------------
   0 N :   -0.171777
   1 H :    0.191595
   2 C :   -0.061427
   3 C :    0.293725
   4 H :    0.136606
   5 H :    0.133424
   6 O :   -0.266682
   7 C :    0.340318
   8 C :   -0.105249
   9 O :   -0.483628
  10 N :   -0.165229
  11 H :    0.156936
  12 H :    0.154717
  13 H :    0.176788
  14 C :    0.190881
  15 C :   -0.140221
  16 O :   -0.316835
  17 H :    0.172910
  18 H :    0.144568
  19 O :   -0.292472
  20 H :    0.244588
  21 N :   -0.055294
  22 H :    0.242439
  23 H :    0.246517
  24 H :    0.232802
Sum of atomic charges:    1.0000000

LOEWDIN ATOMIC CHARGES
----------------------
   0 N :    0.349151
   1 H :   -0.014665
   2 C :   -0.019268
   3 C :   -0.432121
   4 H :    0.042454
   5 H :    0.041462
   6 O :    0.151187
   7 C :   -0.353608
   8 C :   -0.027916
   9 O :    0.075772
  10 N :    0.327105
  11 H :    0.043321
  12 H :    0.036423
  13 H :   -0.018353
  14 C :   -0.403615
  15 C :    0.039994
  16 O :    0.124820
  17 H :    0.039073
  18 H :    0.028466
  19 O :    0.349797
  20 H :   -0.075519
  21 N :    0.604953
  22 H :    0.056743
  23 H :   -0.009134
  24 H :    0.043479

  Mayer bond orders larger than 0.100000
B(  0-N ,  1-H ) :   0.9454 B(  0-N ,  2-C ) :   0.8715 B(  0-N ,  7-C ) :   1.3723
B(  2-C ,  3-C ) :   0.9507 B(  2-C ,  4-H ) :   0.9781 B(  2-C ,  5-H ) :   0.9754
B(  3-C ,  6-O ) :   2.1545 B(  3-C , 19-O ) :   1.1640 B(  7-C ,  8-C ) :   0.9299
B(  7-C ,  9-O ) :   1.7218 B(  8-C , 10-N ) :   0.9364 B(  8-C , 11-H ) :   0.9712
B(  8-C , 12-H ) :   0.9854 B(  9-O , 23-H ) :   0.1513 B( 10-N , 13-H ) :   0.9710
B( 10-N , 14-C ) :   1.2272 B( 14-C , 15-C ) :   0.9521 B( 14-C , 16-O ) :   2.0321
B( 15-C , 17-H ) :   0.9860 B( 15-C , 18-H ) :   0.9959 B( 15-C , 21-N ) :   0.8821
B( 19-O , 20-H ) :   0.9467 B( 21-N , 22-H ) :   0.9238 B( 21-N , 23-H ) :   0.8591
B( 21-N , 24-H ) :   0.9383

Dispersion correction           -0.042786340
FINAL SINGLE POINT ENERGY      -701.343575525805

DIPOLE MOMENT
-------------
                                X             Y             Z
Electronic contribution:     -2.81517       4.65282       2.91818
Nuclear contribution   :      4.29700      -7.66803      -4.66300
                        -----------------------------------------
Total Dipole Moment    :      1.48184      -3.01520      -1.74482
                        -----------------------------------------
Magnitude (a.u.)       :      3.78572
Magnitude (Debye)      :      9.62254

Dispersion correction in the Hessian             ... done   (      0.6 sec)

VIBRATIONAL FREQUENCIES
-----------------------

Scaling factor for frequencies =  1.000000000  (already applied!)

   0:         0.00 cm**-1
   1:         0.00 cm**-1
   2:         0.00 cm**-1
   3:         0.00 cm**-1
   4:         0.00 cm**-1
   5:         0.00 cm**-1
   6:        17.32 cm**-1
   7:        38.27 cm**-1
   8:        52.13 cm**-1
   9:        67.74 cm**-1
  10:        94.49 cm**-1
  11:       125.00 cm**-1
  12:       164.89 cm**-1
  13:       169.98 cm**-1
  14:       263.59 cm**-1
  15:       269.81 cm**-1
  16:       295.86 cm**-1
  17:       314.81 cm**-1
  18:       346.90 cm**-1
  19:       405.29 cm**-1
  20:       438.35 cm**-1
  21:       510.36 cm**-1
  22:       549.31 cm**-1
  23:       552.32 cm**-1
  24:       587.26 cm**-1
  25:       602.21 cm**-1
  26:       619.46 cm**-1
  27:       671.12 cm**-1
  28:       684.37 cm**-1
  29:       731.40 cm**-1
  30:       785.50 cm**-1
  31:       869.34 cm**-1
  32:       879.10 cm**-1
  33:       912.16 cm**-1
  34:       979.54 cm**-1
  35:       986.83 cm**-1
  36:      1015.49 cm**-1
  37:      1057.05 cm**-1
  38:      1076.93 cm**-1
  39:      1128.68 cm**-1
  40:      1139.87 cm**-1
  41:      1157.84 cm**-1
  42:      1200.09 cm**-1
  43:      1269.27 cm**-1
  44:      1275.79 cm**-1
  45:      1284.71 cm**-1
  46:      1303.01 cm**-1
  47:      1334.37 cm**-1
  48:      1361.28 cm**-1
  49:      1390.95 cm**-1
  50:      1410.16 cm**-1
  51:      1422.14 cm**-1
  52:      1475.52 cm**-1
  53:      1494.56 cm**-1
  54:      1504.44 cm**-1
  55:      1538.45 cm**-1
  56:      1570.49 cm**-1
  57:      1602.60 cm**-1
  58:      1624.34 cm**-1
  59:      1682.21 cm**-1
  60:      1726.87 cm**-1
  61:      1819.16 cm**-1
  62:      1891.22 cm**-1
  63:      3025.85 cm**-1
  64:      3102.88 cm**-1
  65:      3119.14 cm**-1
  66:      3132.70 cm**-1
  67:      3143.97 cm**-1
  68:      3172.86 cm**-1
  69:      3203.11 cm**-1
  70:      3475.54 cm**-1
  71:      3556.12 cm**-1
  72:      3649.54 cm**-1
  73:      3660.32 cm**-1
  74:      3799.29 cm**-1

IR SPECTRUM
-----------

 Mode   freq       eps      Int      T**2         TX        TY        TZ
       cm**-1   L/(mol*cm) km/mol    a.u.
----------------------------------------------------------------------------
  6:     17.32   0.000053    0.27  0.000951  (-0.003683  0.016826  0.025571)
  7:     38.27   0.001254    6.34  0.010228  ( 0.084467  0.055613 -0.001015)
  8:     52.13   0.000481    2.43  0.002878  (-0.028230  0.000619  0.045612)
  9:     67.74   0.001170    5.91  0.005390  ( 0.034253  0.058427  0.028345)
 10:     94.49   0.002777   14.03  0.009171  ( 0.065338 -0.019405 -0.067269)
 11:    125.00   0.003646   18.43  0.009102  ( 0.023630  0.076579  0.051763)
 12:    164.89   0.003391   17.14  0.006419  (-0.031857  0.052746  0.051201)
 13:    169.98   0.005391   27.25  0.009898  (-0.080218  0.006696  0.058465)
 14:    263.59   0.004881   24.66  0.005778  ( 0.073889 -0.016421  0.006987)
 15:    269.81   0.009983   50.45  0.011547  ( 0.055401 -0.059495  0.070269)
 16:    295.86   0.002730   13.79  0.002879  (-0.013574 -0.012838 -0.050300)
 17:    314.81   0.000448    2.27  0.000444  ( 0.015887 -0.009788 -0.009805)
 18:    346.90   0.000304    1.54  0.000274  ( 0.005440 -0.012201  0.009764)
 19:    405.29   0.009967   50.37  0.007674  (-0.064496  0.047827  0.035034)
 20:    438.35   0.003822   19.32  0.002721  (-0.029613  0.033754  0.026546)
 21:    510.36   0.012679   64.07  0.007752  ( 0.068933  0.053268 -0.012774)
 22:    549.31   0.000963    4.87  0.000547  (-0.013608  0.016557  0.009383)
 23:    552.32   0.000681    3.44  0.000385  ( 0.008525  0.016927 -0.005031)
 24:    587.26   0.010079   50.94  0.005356  (-0.058716 -0.002644 -0.043607)
 25:    602.21   0.012673   64.04  0.006567  ( 0.022938 -0.069167 -0.035450)
 26:    619.46   0.003440   17.38  0.001733  (-0.022167 -0.017983  0.030298)
 27:    671.12   0.022484  113.62  0.010455  ( 0.079686  0.064069  0.000072)
 28:    684.37   0.013317   67.30  0.006073  ( 0.039629 -0.001196  0.067087)
 29:    731.40   0.003971   20.07  0.001694  ( 0.034761 -0.019440  0.010404)
 30:    785.50   0.002503   12.65  0.000994  ( 0.004199 -0.001812  0.031199)
 31:    869.34   0.001494    7.55  0.000536  ( 0.009947 -0.004289  0.020469)
 32:    879.10   0.001344    6.79  0.000477  ( 0.006452 -0.020833  0.001186)
 33:    912.16   0.002652   13.40  0.000907  (-0.013094  0.000571  0.027118)
 34:    979.54   0.002440   12.33  0.000778  (-0.005007 -0.003337 -0.027227)
 35:    986.83   0.004011   20.27  0.001268  (-0.023314  0.010750  0.024683)
 36:   1015.49   0.000545    2.75  0.000167  (-0.009965 -0.008224 -0.000705)
 37:   1057.05   0.000931    4.70  0.000275  ( 0.016302 -0.002514  0.001663)
 38:   1076.93   0.002428   12.27  0.000704  ( 0.024387  0.008931 -0.005384)
 39:   1128.68   0.002410   12.18  0.000666  (-0.016153 -0.002292 -0.020007)
 40:   1139.87   0.014462   73.08  0.003959  (-0.039034  0.048621  0.008460)
 41:   1157.84   0.003235   16.35  0.000872  ( 0.011921  0.000994 -0.026998)
 42:   1200.09   0.051205  258.77  0.013315  (-0.075636  0.077141 -0.040538)
 43:   1269.27   0.000479    2.42  0.000118  ( 0.008408  0.006702 -0.001488)
 44:   1275.79   0.006229   31.48  0.001524  (-0.022382  0.024783  0.020208)
 45:   1284.71   0.001509    7.62  0.000366  ( 0.009852 -0.004284 -0.015843)
 46:   1303.01   0.006589   33.30  0.001578  ( 0.033913 -0.020318  0.003885)
 47:   1334.37   0.004183   21.14  0.000978  ( 0.022738 -0.002098 -0.021375)
 48:   1361.28   0.002240   11.32  0.000514  ( 0.016489 -0.013975  0.006807)
 49:   1390.95   0.023847  120.51  0.005350  (-0.047751  0.055092 -0.005912)
 50:   1410.16   0.000514    2.60  0.000114  ( 0.008150 -0.006666  0.001700)
 51:   1422.14   0.000518    2.62  0.000114  ( 0.006755 -0.004285  0.007048)
 52:   1475.52   0.003459   17.48  0.000732  ( 0.000030 -0.017480  0.020641)
 53:   1494.56   0.002407   12.16  0.000503  ( 0.015997 -0.015226 -0.003847)
 54:   1504.44   0.002568   12.98  0.000533  ( 0.001858 -0.019158 -0.012738)
 55:   1538.45   0.027921  141.10  0.005664  ( 0.055512 -0.026645  0.043268)
 56:   1570.49   0.040400  204.16  0.008028  (-0.087360  0.018178  0.008085)
 57:   1602.60   0.057441  290.28  0.011185  ( 0.023364 -0.040064 -0.095048)
 58:   1624.34   0.025802  130.39  0.004957  ( 0.013404 -0.065724 -0.021394)
 59:   1682.21   0.035977  181.81  0.006674  (-0.058089  0.055871  0.013342)
 60:   1726.87   0.064562  326.27  0.011667  (-0.062540  0.083506  0.027973)
 61:   1819.16   0.045295  228.90  0.007770  ( 0.072923  0.046452 -0.017163)
 62:   1891.22   0.070807  357.83  0.011684  ( 0.006020  0.011880  0.107267)
 63:   3025.85   0.171898  868.70  0.017728  ( 0.099771 -0.066837 -0.057505)
 64:   3102.88   0.001294    6.54  0.000130  (-0.002125  0.004973  0.010043)
 65:   3119.14   0.002238   11.31  0.000224  (-0.010798  0.004477  0.009342)
 66:   3132.70   0.000832    4.20  0.000083  ( 0.008927 -0.000204 -0.001773)
 67:   3143.97   0.000046    0.23  0.000005  (-0.002006 -0.000679  0.000308)
 68:   3172.86   0.000160    0.81  0.000016  ( 0.002142  0.002602 -0.002089)
 69:   3203.11   0.000159    0.80  0.000015  (-0.001298  0.002629  0.002617)
 70:   3475.54   0.016960   85.71  0.001523  (-0.038497 -0.003728 -0.005189)
 71:   3556.12   0.021511  108.71  0.001888  ( 0.007438 -0.041432  0.010761)
 72:   3649.54   0.023260  117.55  0.001989  (-0.028349  0.034364  0.002082)
 73:   3660.32   0.008932   45.14  0.000762  (-0.018362 -0.020443 -0.002532)
 74:   3799.29   0.028560  144.33  0.002346  (-0.029711  0.036463  0.011557)

--------------------------
THERMOCHEMISTRY AT 298.15K
--------------------------

Temperature         ... 298.15 K
Pressure            ... 1.00 atm
Total Mass          ... 190.18 AMU

Throughout the following assumptions are being made:
  (1) The electronic state is orbitally nondegenerate
  (2) There are no thermally accessible electronically excited states
  (3) Hindered rotations indicated by low frequency modes are not
      treated as such but are treated as vibrations and this may
      cause some error
  (4) All equations used are the standard statistical mechanics
      equations for an ideal gas
  (5) All vibrations are strictly harmonic

freq.      17.32  E(vib)   ...       0.57
freq.      38.27  E(vib)   ...       0.54
freq.      52.13  E(vib)   ...       0.52
freq.      67.74  E(vib)   ...       0.50
freq.      94.49  E(vib)   ...       0.47
freq.     125.00  E(vib)   ...       0.43
freq.     164.89  E(vib)   ...       0.39
freq.     169.98  E(vib)   ...       0.38
freq.     263.59  E(vib)   ...       0.29
freq.     269.81  E(vib)   ...       0.29
freq.     295.86  E(vib)   ...       0.27
freq.     314.81  E(vib)   ...       0.25
freq.     346.90  E(vib)   ...       0.23
freq.     405.29  E(vib)   ...       0.19
freq.     438.35  E(vib)   ...       0.17
freq.     510.36  E(vib)   ...       0.14
freq.     549.31  E(vib)   ...       0.12
freq.     552.32  E(vib)   ...       0.12
freq.     587.26  E(vib)   ...       0.10
freq.     602.21  E(vib)   ...       0.10
freq.     619.46  E(vib)   ...       0.09
freq.     671.12  E(vib)   ...       0.08
freq.     684.37  E(vib)   ...       0.07
freq.     731.40  E(vib)   ...       0.06
freq.     785.50  E(vib)   ...       0.05
freq.     869.34  E(vib)   ...       0.04
freq.     879.10  E(vib)   ...       0.04
freq.     912.16  E(vib)   ...       0.03
freq.     979.54  E(vib)   ...       0.03
freq.     986.83  E(vib)   ...       0.02
freq.    1015.49  E(vib)   ...       0.02
freq.    1057.05  E(vib)   ...       0.02
freq.    1076.93  E(vib)   ...       0.02
freq.    1128.68  E(vib)   ...       0.01
freq.    1139.87  E(vib)   ...       0.01
freq.    1157.84  E(vib)   ...       0.01
freq.    1200.09  E(vib)   ...       0.01
freq.    1269.27  E(vib)   ...       0.01
freq.    1275.79  E(vib)   ...       0.01
freq.    1284.71  E(vib)   ...       0.01
freq.    1303.01  E(vib)   ...       0.01
freq.    1334.37  E(vib)   ...       0.01
freq.    1361.28  E(vib)   ...       0.01
freq.    1390.95  E(vib)   ...       0.00
freq.    1410.16  E(vib)   ...       0.00
freq.    1422.14  E(vib)   ...       0.00
freq.    1475.52  E(vib)   ...       0.00
freq.    1494.56  E(vib)   ...       0.00
freq.    1504.44  E(vib)   ...       0.00
freq.    1538.45  E(vib)   ...       0.00
freq.    1570.49  E(vib)   ...       0.00
freq.    1602.60  E(vib)   ...       0.00
freq.    1624.34  E(vib)   ...       0.00
freq.    1682.21  E(vib)   ...       0.00
freq.    1726.87  E(vib)   ...       0.00
freq.    1819.16  E(vib)   ...       0.00
freq.    1891.22  E(vib)   ...       0.00
freq.    3025.85  E(vib)   ...       0.00
freq.    3102.88  E(vib)   ...       0.00
freq.    3119.14  E(vib)   ...       0.00
freq.    3132.70  E(vib)   ...       0.00
freq.    3143.97  E(vib)   ...       0.00
freq.    3172.86  E(vib)   ...       0.00
freq.    3203.11  E(vib)   ...       0.00
freq.    3475.54  E(vib)   ...       0.00
freq.    3556.12  E(vib)   ...       0.00
freq.    3649.54  E(vib)   ...       0.00
freq.    3660.32  E(vib)   ...       0.00
freq.    3799.29  E(vib)   ...       0.00

------------
INNER ENERGY
------------

The inner energy is: U= E(el) + E(ZPE) + E(vib) + E(rot) + E(trans)
    E(el)   - is the total energy from the electronic structure calculation
              = E(kin-el) + E(nuc-el) + E(el-el) + E(nuc-nuc)
    E(ZPE)  - the the zero temperature vibrational energy from the frequency calculation
    E(vib)  - the the finite temperature correction to E(ZPE) due to population
              of excited vibrational states
    E(rot)  - is the rotational thermal energy
    E(trans)- is the translational thermal energy

Summary of contributions to the inner energy U:
Electronic energy                ...   -701.34357553 Eh
Zero point energy                ...      0.20909819 Eh     131.21 kcal/mol
Thermal vibrational correction   ...      0.01079363 Eh       6.77 kcal/mol
Thermal rotational correction    ...      0.00141627 Eh       0.89 kcal/mol
Thermal translational correction ...      0.00141627 Eh       0.89 kcal/mol
-----------------------------------------------------------------------
Total thermal energy                   -701.12085116 Eh

Summary of corrections to the electronic energy:
(perhaps to be used in another calculation)
Total thermal correction                  0.01362618 Eh       8.55 kcal/mol
Non-thermal (ZPE) correction              0.20909819 Eh     131.21 kcal/mol
-----------------------------------------------------------------------
Total correction                          0.22272436 Eh     139.76 kcal/mol

--------
ENTHALPY
--------

The enthalpy is H = U + kB*T
                kB is Boltzmann's constant
Total free energy                 ...   -701.12085116 Eh
Thermal Enthalpy correction       ...      0.00094421 Eh       0.59 kcal/mol
-----------------------------------------------------------------------
Total Enthalpy                    ...   -701.11990695 Eh

Note: Only C1 symmetry has been detected, increase convergence thresholds
      if your molecule has a higher symmetry. Symmetry factor of 1.0 is
      used for the rotational entropy correction.

Note: Rotational entropy computed according to Herzberg
Infrared and Raman Spectra, Chapter V,1, Van Nostrand Reinhold, 1945
Point Group:  C1, Symmetry Number:   1
Rotational constants in cm-1:     0.064715     0.010841     0.009941

Vibrational entropy computed according to the QRRHO of S. Grimme
Chem.Eur.J. 2012 18 9955

-------
ENTROPY
-------

The entropy contributions are T*S = T*(S(el)+S(vib)+S(rot)+S(trans))
     S(el)   - electronic entropy
     S(vib)  - vibrational entropy
     S(rot)  - rotational entropy
     S(trans)- translational entropy
The entropies will be listed as multiplied by the temperature to get
units of energy

Electronic entropy                ...      0.00000000 Eh      0.00 kcal/mol
Vibrational entropy               ...      0.01949593 Eh     12.23 kcal/mol
Rotational entropy                ...      0.01511608 Eh      9.49 kcal/mol
Translational entropy             ...      0.01978162 Eh     12.41 kcal/mol
-----------------------------------------------------------------------

                             ****ORCA TERMINATED NORMALLY****
TOTAL RUN TIME: 0 days 2 hours 17 minutes 57 seconds 449 msec
