                         Program Version 5.0.2 -  RELEASE  -
|  1> # GGG-H_tt_004 (old 023)
|  2> ! wB97X-D3BJ Opt Freq def2-TZVPP def2/J RIJCOSX VeryTightSCF
|  3> ! PAL8 defgrid3 VeryTightOpt
|  4>
|  5> %maxcore 4096
|  6>
|  7> %geom
|  8>   MaxIter 300
|  9>   # MaxStep 0.1
| 10>   Calc_Hess true
| 11>   Recalc_Hess 10
| 12> end
| 13>
| 14> %chelpg
| 15>   grid 0.1
| 16>   rmax 3.0
| 17> end
| 18>
| 19> * xyz 1 1
| 20>  N   -1.208707   +1.779137   +2.953685
| 21>  H   -1.968972   +2.295970   +2.512598
| 22>  C   -1.262731   +1.596066   +4.393431
| 23>  C   -2.102851   +0.358753   +4.739425
| 24>  H   -0.242345   +1.450111   +4.783195
| 25>  H   -1.685278   +2.492700   +4.872826
| 26>  O   -2.553897   -0.408578   +3.916424
| 27>  C   -0.443591   +0.989643   +2.178935
| 28>  C   -0.646481   +1.124413   +0.649441
| 29>  O   +0.404991   +0.215008   +2.665826
| 30>  N   +0.000000   +0.000000   +0.000000
| 31>  H   -0.171045   +2.056306   +0.301004
| 32>  H   -1.717207   +1.154188   +0.393229
| 33>  H   -0.468199   -0.900222   +0.104506
| 34>  C   +1.368463   +0.000000   +0.000000
| 35>  C   +2.042118   -1.351074   +0.290431
| 36>  O   +2.063532   +1.008005   +0.000000
| 37>  H   +2.908260   -1.534617   -0.361403
| 38>  H   +1.368154   -2.220515   +0.294738
| 39>  O   -2.249019   +0.247050   +6.069683
| 40>  H   -2.788377   -0.553936   +6.246565
| 41>  N   +2.519751   -1.116369   +1.707328
| 42>  H   +2.890488   -1.957404   +2.172628
| 43>  H   +3.250559   -0.384287   +1.687303
| 44>  H   +1.686592   -0.682190   +2.242500
| 45> *
| 46>
| 47>                          ****END OF INPUT****
 Total Charge           Charge          ....    1
 Multiplicity           Mult            ....    1
 Number of Electrons    NEL             ....  100
Dispersion correction           -0.043260063
FINAL SINGLE POINT ENERGY      -701.345057356976
Dispersion correction            ... done
Dispersion correction in the Hessian             ... done   (      0.5 sec)
Dispersion correction           -0.043501692
FINAL SINGLE POINT ENERGY      -701.348359736209
Dispersion correction            ... done
Dispersion correction           -0.043514938
FINAL SINGLE POINT ENERGY      -701.348465333268
FINAL SINGLE POINT ENERGY      -701.348524595502
FINAL SINGLE POINT ENERGY      -701.348543455207
FINAL SINGLE POINT ENERGY      -701.348558784378
FINAL SINGLE POINT ENERGY      -701.348565679787
FINAL SINGLE POINT ENERGY      -701.348571191159
FINAL SINGLE POINT ENERGY      -701.348574215612
FINAL SINGLE POINT ENERGY      -701.348575262947
FINAL SINGLE POINT ENERGY      -701.348575346290
Dispersion correction            ... done
Dispersion correction in the Hessian             ... done   (      0.5 sec)
Dispersion correction           -0.043563746
FINAL SINGLE POINT ENERGY      -701.348575319373
Dispersion correction            ... done
                    ***********************HURRAY********************

CARTESIAN COORDINATES (ANGSTROEM)
---------------------------------
  N     -1.186013    1.791692    2.933051
  H     -1.895506    2.348613    2.486483
  C     -1.257319    1.624413    4.366673
  C     -2.094983    0.404512    4.728376
  H     -0.257761    1.500770    4.781939
  H     -1.697303    2.512389    4.819454
  O     -2.630525   -0.313006    3.929330
  C     -0.474995    0.950446    2.176575
  C     -0.688655    1.077272    0.658884
  O      0.310170    0.131434    2.659742
  N      0.018020    0.011070   -0.014398
  H     -0.311507    2.041910    0.319796
  H     -1.751779    1.017886    0.426837
  H     -0.419453   -0.894531    0.034981
  C      1.372890    0.041539    0.068397
  C      2.073018   -1.301775    0.281931
  O      2.036404    1.050368    0.161784
  H      2.946631   -1.406071   -0.357132
  H      1.426724   -2.173254    0.199538
  O     -2.149448    0.248147    6.054512
  H     -2.701009   -0.521893    6.248660
  N      2.516927   -1.174156    1.714006
  H      2.885561   -2.040947    2.099850
  H      3.230270   -0.444482    1.770006
  H      1.693848   -0.824189    2.265023

 Multiplicity           Mult            ....    1
 Number of Electrons    NEL             ....  100
 Basis Dimension        Dim             ....  571

ORBITAL ENERGIES
----------------

  NO   OCC          E(Eh)            E(eV)
   0   2.0000     -19.377141      -527.2788
   1   2.0000     -19.344590      -526.3931
   2   2.0000     -19.343321      -526.3585
   3   2.0000     -19.320912      -525.7488
   4   2.0000     -14.695696      -399.8902
   5   2.0000     -14.593240      -397.1023
   6   2.0000     -14.587498      -396.9460
   7   2.0000     -10.540871      -286.8317
   8   2.0000     -10.533876      -286.6413
   9   2.0000     -10.525369      -286.4098
  10   2.0000     -10.507805      -285.9319
  11   2.0000     -10.465759      -284.7878
  12   2.0000     -10.451225      -284.3923
  13   2.0000      -1.363367       -37.0991
  14   2.0000      -1.352116       -36.7930
  15   2.0000      -1.331414       -36.2296
  16   2.0000      -1.296791       -35.2875
  17   2.0000      -1.271570       -34.6012
  18   2.0000      -1.222224       -33.2584
  19   2.0000      -1.213402       -33.0183
  20   2.0000      -1.058289       -28.7975
  21   2.0000      -1.029167       -28.0051
  22   2.0000      -0.981326       -26.7032
  23   2.0000      -0.890977       -24.2447
  24   2.0000      -0.886474       -24.1222
  25   2.0000      -0.871662       -23.7191
  26   2.0000      -0.858269       -23.3547
  27   2.0000      -0.843137       -22.9429
  28   2.0000      -0.804738       -21.8980
  29   2.0000      -0.791105       -21.5271
  30   2.0000      -0.763685       -20.7809
  31   2.0000      -0.754790       -20.5389
  32   2.0000      -0.744129       -20.2488
  33   2.0000      -0.731585       -19.9074
  34   2.0000      -0.717264       -19.5177
  35   2.0000      -0.712462       -19.3871
  36   2.0000      -0.700380       -19.0583
  37   2.0000      -0.692766       -18.8511
  38   2.0000      -0.687662       -18.7122
  39   2.0000      -0.674299       -18.3486
  40   2.0000      -0.641343       -17.4518
  41   2.0000      -0.637801       -17.3554
  42   2.0000      -0.626793       -17.0559
  43   2.0000      -0.618443       -16.8287
  44   2.0000      -0.550705       -14.9854
  45   2.0000      -0.546563       -14.8727
  46   2.0000      -0.535330       -14.5671
  47   2.0000      -0.528606       -14.3841
  48   2.0000      -0.517132       -14.0719
  49   2.0000      -0.504116       -13.7177
  50   0.0000      -0.080864        -2.2004
  51   0.0000      -0.058093        -1.5808
  52   0.0000      -0.046615        -1.2685
  53   0.0000      -0.024695        -0.6720
  54   0.0000      -0.018629        -0.5069

MULLIKEN ATOMIC CHARGES
-----------------------
   0 N :   -0.186357
   1 H :    0.189970
   2 C :   -0.062893
   3 C :    0.286105
   4 H :    0.129717
   5 H :    0.148694
   6 O :   -0.308232
   7 C :    0.361291
   8 C :   -0.093676
   9 O :   -0.481556
  10 N :   -0.175422
  11 H :    0.157808
  12 H :    0.150173
  13 H :    0.179542
  14 C :    0.194212
  15 C :   -0.142202
  16 O :   -0.316298
  17 H :    0.172458
  18 H :    0.145275
  19 O :   -0.257093
  20 H :    0.244837
  21 N :   -0.055769
  22 H :    0.231916
  23 H :    0.241785
  24 H :    0.245715
Sum of atomic charges:    1.0000000

LOEWDIN ATOMIC CHARGES
----------------------
   0 N :    0.351350
   1 H :   -0.004800
   2 C :   -0.031494
   3 C :   -0.443794
   4 H :    0.040141
   5 H :    0.040600
   6 O :    0.117268
   7 C :   -0.344788
   8 C :   -0.026628
   9 O :    0.091523
  10 N :    0.327782
  11 H :    0.044087
  12 H :    0.037300
  13 H :   -0.016522
  14 C :   -0.404566
  15 C :    0.039810
  16 O :    0.124510
  17 H :    0.038667
  18 H :    0.028566
  19 O :    0.377038
  20 H :   -0.078197
  21 N :    0.604428
  22 H :    0.042790
  23 H :    0.056532
  24 H :   -0.011604

  Mayer bond orders larger than 0.100000
B(  0-N ,  1-H ) :   0.9656 B(  0-N ,  2-C ) :   0.9171 B(  0-N ,  7-C ) :   1.3384
B(  2-C ,  3-C ) :   0.9279 B(  2-C ,  4-H ) :   0.9721 B(  2-C ,  5-H ) :   0.9758
B(  3-C ,  6-O ) :   2.0969 B(  3-C , 19-O ) :   1.2633 B(  7-C ,  8-C ) :   0.9364
B(  7-C ,  9-O ) :   1.7149 B(  8-C , 10-N ) :   0.9350 B(  8-C , 11-H ) :   0.9693
B(  8-C , 12-H ) :   0.9835 B(  9-O , 24-H ) :   0.1550 B( 10-N , 13-H ) :   0.9697
B( 10-N , 14-C ) :   1.2289 B( 14-C , 15-C ) :   0.9517 B( 14-C , 16-O ) :   2.0358
B( 15-C , 17-H ) :   0.9868 B( 15-C , 18-H ) :   0.9956 B( 15-C , 21-N ) :   0.8820
B( 19-O , 20-H ) :   0.9489 B( 21-N , 22-H ) :   0.9388 B( 21-N , 23-H ) :   0.9244
B( 21-N , 24-H ) :   0.8580

Dispersion correction           -0.043563654
FINAL SINGLE POINT ENERGY      -701.348575330901

DIPOLE MOMENT
-------------
                                X             Y             Z
Electronic contribution:     -2.93860       0.93386       2.03366
Nuclear contribution   :      4.69642      -2.59125      -2.61595
                        -----------------------------------------
Total Dipole Moment    :      1.75781      -1.65739      -0.58229
                        -----------------------------------------
Magnitude (a.u.)       :      2.48514
Magnitude (Debye)      :      6.31672

Dispersion correction in the Hessian             ... done   (      0.5 sec)

VIBRATIONAL FREQUENCIES
-----------------------

Scaling factor for frequencies =  1.000000000  (already applied!)

   0:         0.00 cm**-1
   1:         0.00 cm**-1
   2:         0.00 cm**-1
   3:         0.00 cm**-1
   4:         0.00 cm**-1
   5:         0.00 cm**-1
   6:        29.92 cm**-1
   7:        43.31 cm**-1
   8:        54.98 cm**-1
   9:        73.64 cm**-1
  10:        80.25 cm**-1
  11:       128.57 cm**-1
  12:       162.17 cm**-1
  13:       249.65 cm**-1
  14:       263.99 cm**-1
  15:       278.61 cm**-1
  16:       304.79 cm**-1
  17:       331.36 cm**-1
  18:       349.16 cm**-1
  19:       407.55 cm**-1
  20:       439.44 cm**-1
  21:       510.36 cm**-1
  22:       523.27 cm**-1
  23:       544.10 cm**-1
  24:       581.76 cm**-1
  25:       603.95 cm**-1
  26:       656.15 cm**-1
  27:       670.41 cm**-1
  28:       706.83 cm**-1
  29:       724.82 cm**-1
  30:       783.85 cm**-1
  31:       878.14 cm**-1
  32:       879.76 cm**-1
  33:       904.79 cm**-1
  34:       912.74 cm**-1
  35:       981.83 cm**-1
  36:      1055.74 cm**-1
  37:      1059.94 cm**-1
  38:      1075.58 cm**-1
  39:      1115.73 cm**-1
  40:      1140.18 cm**-1
  41:      1158.28 cm**-1
  42:      1191.04 cm**-1
  43:      1279.88 cm**-1
  44:      1282.09 cm**-1
  45:      1300.04 cm**-1
  46:      1315.21 cm**-1
  47:      1333.62 cm**-1
  48:      1335.72 cm**-1
  49:      1399.62 cm**-1
  50:      1421.45 cm**-1
  51:      1444.49 cm**-1
  52:      1467.16 cm**-1
  53:      1474.67 cm**-1
  54:      1504.89 cm**-1
  55:      1541.09 cm**-1
  56:      1572.36 cm**-1
  57:      1607.22 cm**-1
  58:      1625.09 cm**-1
  59:      1683.23 cm**-1
  60:      1734.13 cm**-1
  61:      1820.49 cm**-1
  62:      1862.82 cm**-1
  63:      3009.56 cm**-1
  64:      3118.25 cm**-1
  65:      3123.76 cm**-1
  66:      3132.76 cm**-1
  67:      3173.01 cm**-1
  68:      3175.59 cm**-1
  69:      3203.62 cm**-1
  70:      3476.70 cm**-1
  71:      3557.30 cm**-1
  72:      3656.70 cm**-1
  73:      3667.02 cm**-1
  74:      3802.80 cm**-1

IR SPECTRUM
-----------

 Mode   freq       eps      Int      T**2         TX        TY        TZ
       cm**-1   L/(mol*cm) km/mol    a.u.
----------------------------------------------------------------------------
  6:     29.92   0.001486    7.51  0.015493  (-0.099360  0.013643  0.073716)
  7:     43.31   0.000255    1.29  0.001838  ( 0.002014  0.001470  0.042805)
  8:     54.98   0.001020    5.15  0.005788  (-0.066233  0.002263 -0.037360)
  9:     73.64   0.000355    1.80  0.001506  ( 0.033900  0.017904  0.006042)
 10:     80.25   0.001497    7.57  0.005822  (-0.057708 -0.034967  0.035625)
 11:    128.57   0.006997   35.36  0.016982  ( 0.013295 -0.098628 -0.084127)
 12:    162.17   0.004670   23.60  0.008986  ( 0.067985  0.010600 -0.065207)
 13:    249.65   0.008379   42.35  0.010474  (-0.085429  0.055751 -0.008231)
 14:    263.99   0.001936    9.78  0.002289  (-0.036943 -0.030061  0.004501)
 15:    278.61   0.006926   35.00  0.007757  ( 0.047395 -0.027931  0.068781)
 16:    304.79   0.001405    7.10  0.001439  ( 0.000181 -0.021297  0.031388)
 17:    331.36   0.000605    3.06  0.000570  ( 0.010900 -0.015439 -0.014594)
 18:    349.16   0.000559    2.83  0.000500  ( 0.004747 -0.018504  0.011607)
 19:    407.55   0.009443   47.72  0.007230  ( 0.065928 -0.041331 -0.034286)
 20:    439.44   0.009070   45.84  0.006441  (-0.050328  0.022212  0.058435)
 21:    510.36   0.003153   15.93  0.001928  ( 0.043142 -0.004286 -0.006956)
 22:    523.27   0.011141   56.30  0.006645  ( 0.004102  0.075406 -0.030687)
 23:    544.10   0.003785   19.13  0.002171  ( 0.011060  0.036961  0.026126)
 24:    581.76   0.006948   35.11  0.003727  (-0.024058 -0.038764 -0.040565)
 25:    603.95   0.010583   53.48  0.005468  ( 0.009976 -0.040836  0.060835)
 26:    656.15   0.017947   90.70  0.008536  (-0.071811  0.053631  0.022417)
 27:    670.41   0.016081   81.27  0.007486  ( 0.054546  0.044226  0.050541)
 28:    706.83   0.005487   27.73  0.002423  (-0.018341  0.018784 -0.041633)
 29:    724.82   0.003491   17.64  0.001503  ( 0.035596 -0.008840  0.012563)
 30:    783.85   0.002199   11.11  0.000875  (-0.002480  0.002033  0.029413)
 31:    878.14   0.001984   10.03  0.000705  (-0.007703  0.021846 -0.012983)
 32:    879.76   0.004160   21.02  0.001476  (-0.018277  0.010394  0.032151)
 33:    904.79   0.000652    3.29  0.000225  (-0.011393  0.004530 -0.008633)
 34:    912.74   0.002626   13.27  0.000898  ( 0.014189  0.000943 -0.026373)
 35:    981.83   0.001155    5.84  0.000367  (-0.017616  0.003326 -0.006774)
 36:   1055.74   0.000700    3.54  0.000207  (-0.013693 -0.003811 -0.002196)
 37:   1059.94   0.004707   23.79  0.001386  (-0.028981  0.022552  0.006098)
 38:   1075.58   0.002988   15.10  0.000867  ( 0.027835  0.007194 -0.006354)
 39:   1115.73   0.001194    6.03  0.000334  ( 0.006570 -0.000361  0.017049)
 40:   1140.18   0.011725   59.25  0.003209  ( 0.033443 -0.043508 -0.014064)
 41:   1158.28   0.004350   21.98  0.001172  (-0.024031  0.003862  0.024074)
 42:   1191.04   0.056847  287.28  0.014895  ( 0.026717  0.022826 -0.116875)
 43:   1279.88   0.002484   12.55  0.000606  (-0.016413  0.014145  0.011673)
 44:   1282.09   0.000820    4.14  0.000200  (-0.006929 -0.004406  0.011495)
 45:   1300.04   0.012514   63.24  0.003004  ( 0.044538 -0.027151 -0.016824)
 46:   1315.21   0.008724   44.09  0.002070  ( 0.007107  0.002820 -0.044851)
 47:   1333.62   0.000528    2.67  0.000124  ( 0.000653 -0.005405  0.009692)
 48:   1335.72   0.005512   27.86  0.001288  (-0.027294 -0.000302  0.023297)
 49:   1399.62   0.004282   21.64  0.000955  ( 0.018453 -0.017881  0.017161)
 50:   1421.45   0.000508    2.57  0.000111  (-0.006752  0.005375 -0.006079)
 51:   1444.49   0.014126   71.39  0.003052  ( 0.026525  0.029072 -0.038767)
 52:   1467.16   0.006836   34.55  0.001454  (-0.026028  0.005243 -0.027369)
 53:   1474.67   0.002256   11.40  0.000477  ( 0.005709  0.016672 -0.012916)
 54:   1504.89   0.002506   12.67  0.000520  (-0.001892  0.019004  0.012449)
 55:   1541.09   0.027538  139.16  0.005576  (-0.054746  0.025476 -0.043932)
 56:   1572.36   0.038792  196.04  0.007699  (-0.086196  0.015832  0.004308)
 57:   1607.22   0.042115  212.83  0.008177  (-0.037474  0.030011  0.076630)
 58:   1625.09   0.018402   92.99  0.003534  (-0.015797  0.055868  0.012765)
 59:   1683.23   0.027934  141.17  0.005179  (-0.055356  0.045241  0.008231)
 60:   1734.13   0.054015  272.97  0.009720  (-0.070838  0.067495  0.012107)
 61:   1820.49   0.049520  250.25  0.008489  ( 0.077170  0.048129 -0.014732)
 62:   1862.82   0.058414  295.20  0.009786  (-0.029867 -0.048700 -0.080758)
 63:   3009.56   0.176308  890.99  0.018282  ( 0.105119 -0.062150 -0.058042)
 64:   3118.25   0.002566   12.97  0.000257  (-0.011570  0.003373  0.010560)
 65:   3123.76   0.000721    3.64  0.000072  (-0.003106 -0.000726  0.007864)
 66:   3132.76   0.000707    3.57  0.000070  (-0.008300 -0.000351  0.001202)
 67:   3173.01   0.000227    1.15  0.000022  ( 0.002388  0.003667 -0.001777)
 68:   3175.59   0.000044    0.22  0.000004  (-0.001113  0.001514  0.000902)
 69:   3203.62   0.000128    0.65  0.000012  ( 0.001116 -0.002348 -0.002386)
 70:   3476.70   0.017132   86.58  0.001538  (-0.038521 -0.003972 -0.006171)
 71:   3557.30   0.020422  103.21  0.001792  (-0.006288  0.040647 -0.009994)
 72:   3656.70   0.008760   44.27  0.000748  (-0.017838 -0.020568 -0.002526)
 73:   3667.02   0.013481   68.13  0.001147  ( 0.024647 -0.022576  0.005484)
 74:   3802.80   0.024535  123.99  0.002013  (-0.022577 -0.028980  0.025765)

--------------------------
THERMOCHEMISTRY AT 298.15K
--------------------------

Temperature         ... 298.15 K
Pressure            ... 1.00 atm
Total Mass          ... 190.18 AMU

Throughout the following assumptions are being made:
  (1) The electronic state is orbitally nondegenerate
  (2) There are no thermally accessible electronically excited states
  (3) Hindered rotations indicated by low frequency modes are not
      treated as such but are treated as vibrations and this may
      cause some error
  (4) All equations used are the standard statistical mechanics
      equations for an ideal gas
  (5) All vibrations are strictly harmonic

freq.      29.92  E(vib)   ...       0.55
freq.      43.31  E(vib)   ...       0.53
freq.      54.98  E(vib)   ...       0.52
freq.      73.64  E(vib)   ...       0.49
freq.      80.25  E(vib)   ...       0.49
freq.     128.57  E(vib)   ...       0.43
freq.     162.17  E(vib)   ...       0.39
freq.     249.65  E(vib)   ...       0.31
freq.     263.99  E(vib)   ...       0.29
freq.     278.61  E(vib)   ...       0.28
freq.     304.79  E(vib)   ...       0.26
freq.     331.36  E(vib)   ...       0.24
freq.     349.16  E(vib)   ...       0.23
freq.     407.55  E(vib)   ...       0.19
freq.     439.44  E(vib)   ...       0.17
freq.     510.36  E(vib)   ...       0.14
freq.     523.27  E(vib)   ...       0.13
freq.     544.10  E(vib)   ...       0.12
freq.     581.76  E(vib)   ...       0.11
freq.     603.95  E(vib)   ...       0.10
freq.     656.15  E(vib)   ...       0.08
freq.     670.41  E(vib)   ...       0.08
freq.     706.83  E(vib)   ...       0.07
freq.     724.82  E(vib)   ...       0.06
freq.     783.85  E(vib)   ...       0.05
freq.     878.14  E(vib)   ...       0.04
freq.     879.76  E(vib)   ...       0.04
freq.     904.79  E(vib)   ...       0.03
freq.     912.74  E(vib)   ...       0.03
freq.     981.83  E(vib)   ...       0.02
freq.    1055.74  E(vib)   ...       0.02
freq.    1059.94  E(vib)   ...       0.02
freq.    1075.58  E(vib)   ...       0.02
freq.    1115.73  E(vib)   ...       0.01
freq.    1140.18  E(vib)   ...       0.01
freq.    1158.28  E(vib)   ...       0.01
freq.    1191.04  E(vib)   ...       0.01
freq.    1279.88  E(vib)   ...       0.01
freq.    1282.09  E(vib)   ...       0.01
freq.    1300.04  E(vib)   ...       0.01
freq.    1315.21  E(vib)   ...       0.01
freq.    1333.62  E(vib)   ...       0.01
freq.    1335.72  E(vib)   ...       0.01
freq.    1399.62  E(vib)   ...       0.00
freq.    1421.45  E(vib)   ...       0.00
freq.    1444.49  E(vib)   ...       0.00
freq.    1467.16  E(vib)   ...       0.00
freq.    1474.67  E(vib)   ...       0.00
freq.    1504.89  E(vib)   ...       0.00
freq.    1541.09  E(vib)   ...       0.00
freq.    1572.36  E(vib)   ...       0.00
freq.    1607.22  E(vib)   ...       0.00
freq.    1625.09  E(vib)   ...       0.00
freq.    1683.23  E(vib)   ...       0.00
freq.    1734.13  E(vib)   ...       0.00
freq.    1820.49  E(vib)   ...       0.00
freq.    1862.82  E(vib)   ...       0.00
freq.    3009.56  E(vib)   ...       0.00
freq.    3118.25  E(vib)   ...       0.00
freq.    3123.76  E(vib)   ...       0.00
freq.    3132.76  E(vib)   ...       0.00
freq.    3173.01  E(vib)   ...       0.00
freq.    3175.59  E(vib)   ...       0.00
freq.    3203.62  E(vib)   ...       0.00
freq.    3476.70  E(vib)   ...       0.00
freq.    3557.30  E(vib)   ...       0.00
freq.    3656.70  E(vib)   ...       0.00
freq.    3667.02  E(vib)   ...       0.00
freq.    3802.80  E(vib)   ...       0.00

------------
INNER ENERGY
------------

The inner energy is: U= E(el) + E(ZPE) + E(vib) + E(rot) + E(trans)
    E(el)   - is the total energy from the electronic structure calculation
              = E(kin-el) + E(nuc-el) + E(el-el) + E(nuc-nuc)
    E(ZPE)  - the the zero temperature vibrational energy from the frequency calculation
    E(vib)  - the the finite temperature correction to E(ZPE) due to population
              of excited vibrational states
    E(rot)  - is the rotational thermal energy
    E(trans)- is the translational thermal energy

Summary of contributions to the inner energy U:
Electronic energy                ...   -701.34857533 Eh
Zero point energy                ...      0.20949809 Eh     131.46 kcal/mol
Thermal vibrational correction   ...      0.01059983 Eh       6.65 kcal/mol
Thermal rotational correction    ...      0.00141627 Eh       0.89 kcal/mol
Thermal translational correction ...      0.00141627 Eh       0.89 kcal/mol
-----------------------------------------------------------------------
Total thermal energy                   -701.12564487 Eh

Summary of corrections to the electronic energy:
(perhaps to be used in another calculation)
Total thermal correction                  0.01343237 Eh       8.43 kcal/mol
Non-thermal (ZPE) correction              0.20949809 Eh     131.46 kcal/mol
-----------------------------------------------------------------------
Total correction                          0.22293046 Eh     139.89 kcal/mol

--------
ENTHALPY
--------

The enthalpy is H = U + kB*T
                kB is Boltzmann's constant
Total free energy                 ...   -701.12564487 Eh
Thermal Enthalpy correction       ...      0.00094421 Eh       0.59 kcal/mol
-----------------------------------------------------------------------
Total Enthalpy                    ...   -701.12470066 Eh

Note: Only C1 symmetry has been detected, increase convergence thresholds
      if your molecule has a higher symmetry. Symmetry factor of 1.0 is
      used for the rotational entropy correction.

Note: Rotational entropy computed according to Herzberg
Infrared and Raman Spectra, Chapter V,1, Van Nostrand Reinhold, 1945
Point Group:  C1, Symmetry Number:   1
Rotational constants in cm-1:     0.053402     0.013286     0.012228

Vibrational entropy computed according to the QRRHO of S. Grimme
Chem.Eur.J. 2012 18 9955

-------
ENTROPY
-------

The entropy contributions are T*S = T*(S(el)+S(vib)+S(rot)+S(trans))
     S(el)   - electronic entropy
     S(vib)  - vibrational entropy
     S(rot)  - rotational entropy
     S(trans)- translational entropy
The entropies will be listed as multiplied by the temperature to get
units of energy

Electronic entropy                ...      0.00000000 Eh      0.00 kcal/mol
Vibrational entropy               ...      0.01878320 Eh     11.79 kcal/mol
Rotational entropy                ...      0.01501301 Eh      9.42 kcal/mol
Translational entropy             ...      0.01978162 Eh     12.41 kcal/mol
-----------------------------------------------------------------------

                             ****ORCA TERMINATED NORMALLY****
TOTAL RUN TIME: 0 days 2 hours 11 minutes 9 seconds 51 msec
